<?xml version="1.0"?>
<VTKFile type="UnstructuredGrid">
  <UnstructuredGrid>
  <Piece NumberOfPoints="30"  NumberOfCells="85">
    <Points>
      <DataArray type="Float64" NumberOfComponents="3" format="ascii">
0 0 0
4 0 0
8 0 0
12 0 0
16 0 0
16.0023 2.99528 0.000126654
12.0016 2.99544 0.000103868
8 2.99491 0.000138116
3.9984 2.99544 0.000103868
-0.00225632 2.99528 0.000126654
0.00160675 -0.0494319 8
4.00161 -0.0457924 8
8 -0.0513004 8
11.9984 -0.0457924 8
15.9984 -0.0494319 8
15.998 2.95057 8
11.9964 2.9551 8
8 2.948 8
4.00359 2.9551 8
0.00200121 2.95057 8
0 0 16
4 0 16
8 0 16
12 0 16
16 0 16
16.0023 2.99528 15.9999
12.0016 2.99544 15.9999
8 2.99491 15.9999
3.9984 2.99544 15.9999
-0.00225632 2.99528 15.9999
      </DataArray>
    </Points>
    <Cells>
      <DataArray type="Int32" Name="connectivity" format="ascii">
0 1
1 2
2 3
3 4
4 5
5 6
6 7
7 8
8 9
9 0
8 1
7 2
6 3
10 11
11 12
12 13
13 14
14 15
15 16
16 17
17 18
18 19
19 10
18 11
17 12
16 13
20 21
21 22
22 23
23 24
24 25
25 26
26 27
27 28
28 29
20 29
28 21
22 27
23 26
20 10
10 0
29 19
19 9
21 11
28 18
11 1
18 8
22 12
27 17
12 2
17 7
23 13
26 16
13 3
16 6
24 14
25 15
15 5
14 4
25 23
29 21
19 11
9 1
15 13
5 3
8 2
6 2
18 12
16 12
28 22
26 22
19 20
19 0
21 18
18 1
22 17
17 2
23 16
16 3
15 24
15 4
20 18
18 0
24 16
16 4
      </DataArray>
      <DataArray type="Int32" Name="offsets" format="ascii">
2
4
6
8
10
12
14
16
18
20
22
24
26
28
30
32
34
36
38
40
42
44
46
48
50
52
54
56
58
60
62
64
66
68
70
72
74
76
78
80
82
84
86
88
90
92
94
96
98
100
102
104
106
108
110
112
114
116
118
120
122
124
126
128
130
132
134
136
138
140
142
144
146
148
150
152
154
156
158
160
162
164
166
168
170
      </DataArray>
      <DataArray type="UInt8" Name="types" format="ascii">
4
4
4
4
4
4
4
4
4
4
4
4
4
4
4
4
4
4
4
4
4
4
4
4
4
4
4
4
4
4
4
4
4
4
4
4
4
4
4
4
4
4
4
4
4
4
4
4
4
4
4
4
4
4
4
4
4
4
4
4
4
4
4
4
4
4
4
4
4
4
4
4
4
4
4
4
4
4
4
4
4
4
4
4
4
      </DataArray>
    </Cells>
    <PointData>
      <DataArray type="Float64" NumberOfComponents="3" Name="Displacement" format="ascii">
0 0 0
0 0 0
0 0 0
0 0 0
0 0 0
0.00225632 -0.00471936 0.000126654
0.00159615 -0.00456228 0.000103868
0 -0.00508802 0.000138116
-0.00159615 -0.00456228 0.000103868
-0.00225632 -0.00471936 0.000126654
0.00160675 -0.0494319 0
0.00160512 -0.0457924 0
-8.88178e-16 -0.0513004 0
-0.00160512 -0.0457924 0
-0.00160675 -0.0494319 0
-0.00200121 -0.0494327 0
-0.00359354 -0.0448969 0
0 -0.0519999 0
0.00359354 -0.0448969 0
0.00200121 -0.0494327 0
0 0 0
0 0 0
0 0 0
0 0 0
0 0 0
0.00225632 -0.00471936 -0.000126654
0.00159615 -0.00456228 -0.000103868
0 -0.00508802 -0.000138116
-0.00159615 -0.00456228 -0.000103868
-0.00225632 -0.00471936 -0.000126654
      </DataArray> 
      <DataArray type="Float64" NumberOfComponents="3" Name="Velocity" format="ascii">
0 0 0
0 0 0
0 0 0
0 0 0
0 0 0
0 0 0
0 0 0
0 0 0
0 0 0
0 0 0
0 0 0
0 0 0
0 0 0
0 0 0
0 0 0
0 0 0
0 0 0
0 0 0
0 0 0
0 0 0
0 0 0
0 0 0
0 0 0
0 0 0
0 0 0
0 0 0
0 0 0
0 0 0
0 0 0
0 0 0
      </DataArray> 
      <DataArray type="Float64" NumberOfComponents="3" Name="Acceleration" format="ascii">
0 0 0
0 0 0
0 0 0
0 0 0
0 0 0
0 0 0
0 0 0
0 0 0
0 0 0
0 0 0
0 0 0
0 0 0
0 0 0
0 0 0
0 0 0
0 0 0
0 0 0
0 0 0
0 0 0
0 0 0
0 0 0
0 0 0
0 0 0
0 0 0
0 0 0
0 0 0
0 0 0
0 0 0
0 0 0
0 0 0
      </DataArray> 
    </PointData>
    <CellData>
    </CellData>
  </Piece>
  </UnstructuredGrid>
</VTKFile>
