<?xml version="1.0"?>
<VTKFile type="UnstructuredGrid">
  <UnstructuredGrid>
  <Piece NumberOfPoints="30"  NumberOfCells="85">
    <Points>
      <DataArray type="Float64" NumberOfComponents="3" format="ascii">
0 0 0
4 0 0
8 0 0
12 0 0
16 0 0
16.0022 2.99542 0.000119245
12.0015 2.99557 9.77725e-05
8 2.99506 0.000130013
3.99845 2.99557 9.77725e-05
-0.00219078 2.99542 0.000119245
0.00155955 -0.0479704 8
4.00156 -0.0444352 8
8 -0.0497794 8
11.9984 -0.0444352 8
15.9984 -0.0479704 8
15.9981 2.95203 8
11.9965 2.95643 8
8 2.94954 8
4.00349 2.95643 8
0.00194087 2.95203 8
0 0 16
4 0 16
8 0 16
12 0 16
16 0 16
16.0022 2.99542 15.9999
12.0015 2.99557 15.9999
8 2.99506 15.9999
3.99845 2.99557 15.9999
-0.00219078 2.99542 15.9999
      </DataArray>
    </Points>
    <Cells>
      <DataArray type="Int32" Name="connectivity" format="ascii">
0 1
1 2
2 3
3 4
4 5
5 6
6 7
7 8
8 9
9 0
8 1
7 2
6 3
10 11
11 12
12 13
13 14
14 15
15 16
16 17
17 18
18 19
19 10
18 11
17 12
16 13
20 21
21 22
22 23
23 24
24 25
25 26
26 27
27 28
28 29
20 29
28 21
22 27
23 26
20 10
10 0
29 19
19 9
21 11
28 18
11 1
18 8
22 12
27 17
12 2
17 7
23 13
26 16
13 3
16 6
24 14
25 15
15 5
14 4
25 23
29 21
19 11
9 1
15 13
5 3
8 2
6 2
18 12
16 12
28 22
26 22
19 20
19 0
21 18
18 1
22 17
17 2
23 16
16 3
15 24
15 4
20 18
18 0
24 16
16 4
      </DataArray>
      <DataArray type="Int32" Name="offsets" format="ascii">
2
4
6
8
10
12
14
16
18
20
22
24
26
28
30
32
34
36
38
40
42
44
46
48
50
52
54
56
58
60
62
64
66
68
70
72
74
76
78
80
82
84
86
88
90
92
94
96
98
100
102
104
106
108
110
112
114
116
118
120
122
124
126
128
130
132
134
136
138
140
142
144
146
148
150
152
154
156
158
160
162
164
166
168
170
      </DataArray>
      <DataArray type="UInt8" Name="types" format="ascii">
4
4
4
4
4
4
4
4
4
4
4
4
4
4
4
4
4
4
4
4
4
4
4
4
4
4
4
4
4
4
4
4
4
4
4
4
4
4
4
4
4
4
4
4
4
4
4
4
4
4
4
4
4
4
4
4
4
4
4
4
4
4
4
4
4
4
4
4
4
4
4
4
4
4
4
4
4
4
4
4
4
4
4
4
4
      </DataArray>
    </Cells>
    <PointData>
      <DataArray type="Float64" NumberOfComponents="3" Name="Displacement" format="ascii">
0 0 0
0 0 0
0 0 0
0 0 0
0 0 0
0.00219078 -0.00458246 0.000119245
0.0015498 -0.00442996 9.77725e-05
0 -0.00494047 0.000130013
-0.0015498 -0.00442996 9.77725e-05
-0.00219078 -0.00458246 0.000119245
0.00155955 -0.0479704 0
0.00155802 -0.0444352 0
-1.77636e-15 -0.0497794 0
-0.00155802 -0.0444352 0
-0.00155955 -0.0479704 0
-0.00194087 -0.0479711 0
-0.00348683 -0.0435657 0
-8.88178e-16 -0.0504582 0
0.00348683 -0.0435657 0
0.00194087 -0.0479711 0
0 0 0
0 0 0
0 0 0
0 0 0
0 0 0
0.00219078 -0.00458246 -0.000119245
0.0015498 -0.00442996 -9.77725e-05
0 -0.00494047 -0.000130013
-0.0015498 -0.00442996 -9.77725e-05
-0.00219078 -0.00458246 -0.000119245
      </DataArray> 
      <DataArray type="Float64" NumberOfComponents="3" Name="Velocity" format="ascii">
0 0 0
0 0 0
0 0 0
0 0 0
0 0 0
0 0 0
0 0 0
0 0 0
0 0 0
0 0 0
0 0 0
0 0 0
0 0 0
0 0 0
0 0 0
0 0 0
0 0 0
0 0 0
0 0 0
0 0 0
0 0 0
0 0 0
0 0 0
0 0 0
0 0 0
0 0 0
0 0 0
0 0 0
0 0 0
0 0 0
      </DataArray> 
      <DataArray type="Float64" NumberOfComponents="3" Name="Acceleration" format="ascii">
0 0 0
0 0 0
0 0 0
0 0 0
0 0 0
0 0 0
0 0 0
0 0 0
0 0 0
0 0 0
0 0 0
0 0 0
0 0 0
0 0 0
0 0 0
0 0 0
0 0 0
0 0 0
0 0 0
0 0 0
0 0 0
0 0 0
0 0 0
0 0 0
0 0 0
0 0 0
0 0 0
0 0 0
0 0 0
0 0 0
      </DataArray> 
    </PointData>
    <CellData>
    </CellData>
  </Piece>
  </UnstructuredGrid>
</VTKFile>
