<?xml version="1.0"?>
<VTKFile type="UnstructuredGrid">
  <UnstructuredGrid>
  <Piece NumberOfPoints="30"  NumberOfCells="85">
    <Points>
      <DataArray type="Float64" NumberOfComponents="3" format="ascii">
0 0 0
4 0 0
8 0 0
12 0 0
16 0 0
16.0024 2.99504 0.00014024
12.0017 2.99521 0.000115052
8 2.99465 0.00015298
3.99832 2.99521 0.000115052
-0.00237151 2.99504 0.00014024
0.00168977 -0.0520042 8
4.00169 -0.0481817 8
8 -0.0539778 8
11.9983 -0.0481817 8
15.9983 -0.0520042 8
15.9979 2.94799 8
11.9962 2.95276 8
8 2.94529 8
4.00378 2.95276 8
0.00210758 2.94799 8
0 0 16
4 0 16
8 0 16
12 0 16
16 0 16
16.0024 2.99504 15.9999
12.0017 2.99521 15.9999
8 2.99465 15.9998
3.99832 2.99521 15.9999
-0.00237151 2.99504 15.9999
      </DataArray>
    </Points>
    <Cells>
      <DataArray type="Int32" Name="connectivity" format="ascii">
0 1
1 2
2 3
3 4
4 5
5 6
6 7
7 8
8 9
9 0
8 1
7 2
6 3
10 11
11 12
12 13
13 14
14 15
15 16
16 17
17 18
18 19
19 10
18 11
17 12
16 13
20 21
21 22
22 23
23 24
24 25
25 26
26 27
27 28
28 29
20 29
28 21
22 27
23 26
20 10
10 0
29 19
19 9
21 11
28 18
11 1
18 8
22 12
27 17
12 2
17 7
23 13
26 16
13 3
16 6
24 14
25 15
15 5
14 4
25 23
29 21
19 11
9 1
15 13
5 3
8 2
6 2
18 12
16 12
28 22
26 22
19 20
19 0
21 18
18 1
22 17
17 2
23 16
16 3
15 24
15 4
20 18
18 0
24 16
16 4
      </DataArray>
      <DataArray type="Int32" Name="offsets" format="ascii">
2
4
6
8
10
12
14
16
18
20
22
24
26
28
30
32
34
36
38
40
42
44
46
48
50
52
54
56
58
60
62
64
66
68
70
72
74
76
78
80
82
84
86
88
90
92
94
96
98
100
102
104
106
108
110
112
114
116
118
120
122
124
126
128
130
132
134
136
138
140
142
144
146
148
150
152
154
156
158
160
162
164
166
168
170
      </DataArray>
      <DataArray type="UInt8" Name="types" format="ascii">
4
4
4
4
4
4
4
4
4
4
4
4
4
4
4
4
4
4
4
4
4
4
4
4
4
4
4
4
4
4
4
4
4
4
4
4
4
4
4
4
4
4
4
4
4
4
4
4
4
4
4
4
4
4
4
4
4
4
4
4
4
4
4
4
4
4
4
4
4
4
4
4
4
4
4
4
4
4
4
4
4
4
4
4
4
      </DataArray>
    </Cells>
    <PointData>
      <DataArray type="Float64" NumberOfComponents="3" Name="Displacement" format="ascii">
0 0 0
0 0 0
0 0 0
0 0 0
0 0 0
0.00237151 -0.00495992 0.00014024
0.0016776 -0.00479477 0.000115052
0 -0.00534728 0.00015298
-0.0016776 -0.00479477 0.000115052
-0.00237151 -0.00495992 0.00014024
0.00168977 -0.0520042 0
0.00168798 -0.0481817 0
-2.66454e-15 -0.0539778 0
-0.00168798 -0.0481817 0
-0.00168977 -0.0520042 0
-0.00210758 -0.0520051 0
-0.00378141 -0.0472404 0
-2.66454e-15 -0.0547137 0
0.00378141 -0.0472404 0
0.00210758 -0.0520051 0
0 0 0
0 0 0
0 0 0
0 0 0
0 0 0
0.00237151 -0.00495992 -0.00014024
0.0016776 -0.00479477 -0.000115052
0 -0.00534728 -0.00015298
-0.0016776 -0.00479477 -0.000115052
-0.00237151 -0.00495992 -0.00014024
      </DataArray> 
      <DataArray type="Float64" NumberOfComponents="3" Name="Velocity" format="ascii">
0 0 0
0 0 0
0 0 0
0 0 0
0 0 0
0 0 0
0 0 0
0 0 0
0 0 0
0 0 0
0 0 0
0 0 0
0 0 0
0 0 0
0 0 0
0 0 0
0 0 0
0 0 0
0 0 0
0 0 0
0 0 0
0 0 0
0 0 0
0 0 0
0 0 0
0 0 0
0 0 0
0 0 0
0 0 0
0 0 0
      </DataArray> 
      <DataArray type="Float64" NumberOfComponents="3" Name="Acceleration" format="ascii">
0 0 0
0 0 0
0 0 0
0 0 0
0 0 0
0 0 0
0 0 0
0 0 0
0 0 0
0 0 0
0 0 0
0 0 0
0 0 0
0 0 0
0 0 0
0 0 0
0 0 0
0 0 0
0 0 0
0 0 0
0 0 0
0 0 0
0 0 0
0 0 0
0 0 0
0 0 0
0 0 0
0 0 0
0 0 0
0 0 0
      </DataArray> 
    </PointData>
    <CellData>
    </CellData>
  </Piece>
  </UnstructuredGrid>
</VTKFile>
