<?xml version="1.0"?>
<VTKFile type="UnstructuredGrid">
  <UnstructuredGrid>
  <Piece NumberOfPoints="30"  NumberOfCells="85">
    <Points>
      <DataArray type="Float64" NumberOfComponents="3" format="ascii">
0 0 0
4 0 0
8 0 0
12 0 0
16 0 0
16.0017 2.99645 7.10017e-05
12.0012 2.99656 5.8128e-05
8 2.99617 7.73111e-05
3.9988 2.99656 5.8128e-05
-0.00169884 2.99645 7.10017e-05
0.00120631 -0.0370508 8
4.00121 -0.0343013 8
8 -0.0384243 8
11.9988 -0.0343013 8
15.9988 -0.0370508 8
15.9985 2.96295 8
11.9973 2.96637 8
8 2.96105 8
4.00269 2.96637 8
0.00149234 2.96295 8
0 0 16
4 0 16
8 0 16
12 0 16
16 0 16
16.0017 2.99645 15.9999
12.0012 2.99656 15.9999
8 2.99617 15.9999
3.9988 2.99656 15.9999
-0.00169884 2.99645 15.9999
      </DataArray>
    </Points>
    <Cells>
      <DataArray type="Int32" Name="connectivity" format="ascii">
0 1
1 2
2 3
3 4
4 5
5 6
6 7
7 8
8 9
9 0
8 1
7 2
6 3
10 11
11 12
12 13
13 14
14 15
15 16
16 17
17 18
18 19
19 10
18 11
17 12
16 13
20 21
21 22
22 23
23 24
24 25
25 26
26 27
27 28
28 29
20 29
28 21
22 27
23 26
20 10
10 0
29 19
19 9
21 11
28 18
11 1
18 8
22 12
27 17
12 2
17 7
23 13
26 16
13 3
16 6
24 14
25 15
15 5
14 4
25 23
29 21
19 11
9 1
15 13
5 3
8 2
6 2
18 12
16 12
28 22
26 22
19 20
19 0
21 18
18 1
22 17
17 2
23 16
16 3
15 24
15 4
20 18
18 0
24 16
16 4
      </DataArray>
      <DataArray type="Int32" Name="offsets" format="ascii">
2
4
6
8
10
12
14
16
18
20
22
24
26
28
30
32
34
36
38
40
42
44
46
48
50
52
54
56
58
60
62
64
66
68
70
72
74
76
78
80
82
84
86
88
90
92
94
96
98
100
102
104
106
108
110
112
114
116
118
120
122
124
126
128
130
132
134
136
138
140
142
144
146
148
150
152
154
156
158
160
162
164
166
168
170
      </DataArray>
      <DataArray type="UInt8" Name="types" format="ascii">
4
4
4
4
4
4
4
4
4
4
4
4
4
4
4
4
4
4
4
4
4
4
4
4
4
4
4
4
4
4
4
4
4
4
4
4
4
4
4
4
4
4
4
4
4
4
4
4
4
4
4
4
4
4
4
4
4
4
4
4
4
4
4
4
4
4
4
4
4
4
4
4
4
4
4
4
4
4
4
4
4
4
4
4
4
      </DataArray>
    </Cells>
    <PointData>
      <DataArray type="Float64" NumberOfComponents="3" Name="Displacement" format="ascii">
0 0 0
0 0 0
0 0 0
0 0 0
0 0 0
0.00169884 -0.00355455 7.10017e-05
0.0012019 -0.00343645 5.8128e-05
0 -0.00383256 7.73111e-05
-0.0012019 -0.00343645 5.8128e-05
-0.00169884 -0.00355455 7.10017e-05
0.00120631 -0.0370508 0
0.00120538 -0.0343013 0
0 -0.0384243 0
-0.00120538 -0.0343013 0
-0.00120631 -0.0370508 0
-0.00149234 -0.0370512 0
-0.0026905 -0.0336274 0
0 -0.0389485 0
0.0026905 -0.0336274 0
0.00149234 -0.0370512 0
0 0 0
0 0 0
0 0 0
0 0 0
0 0 0
0.00169884 -0.00355455 -7.10017e-05
0.0012019 -0.00343645 -5.8128e-05
0 -0.00383256 -7.73111e-05
-0.0012019 -0.00343645 -5.8128e-05
-0.00169884 -0.00355455 -7.10017e-05
      </DataArray> 
      <DataArray type="Float64" NumberOfComponents="3" Name="Velocity" format="ascii">
0 0 0
0 0 0
0 0 0
0 0 0
0 0 0
0 0 0
0 0 0
0 0 0
0 0 0
0 0 0
0 0 0
0 0 0
0 0 0
0 0 0
0 0 0
0 0 0
0 0 0
0 0 0
0 0 0
0 0 0
0 0 0
0 0 0
0 0 0
0 0 0
0 0 0
0 0 0
0 0 0
0 0 0
0 0 0
0 0 0
      </DataArray> 
      <DataArray type="Float64" NumberOfComponents="3" Name="Acceleration" format="ascii">
0 0 0
0 0 0
0 0 0
0 0 0
0 0 0
0 0 0
0 0 0
0 0 0
0 0 0
0 0 0
0 0 0
0 0 0
0 0 0
0 0 0
0 0 0
0 0 0
0 0 0
0 0 0
0 0 0
0 0 0
0 0 0
0 0 0
0 0 0
0 0 0
0 0 0
0 0 0
0 0 0
0 0 0
0 0 0
0 0 0
      </DataArray> 
    </PointData>
    <CellData>
    </CellData>
  </Piece>
  </UnstructuredGrid>
</VTKFile>
