<?xml version="1.0"?>
<VTKFile type="UnstructuredGrid">
  <UnstructuredGrid>
  <Piece NumberOfPoints="30"  NumberOfCells="85">
    <Points>
      <DataArray type="Float64" NumberOfComponents="3" format="ascii">
0 0 0
4 0 0
8 0 0
12 0 0
16 0 0
16.0016 2.99663 6.3552e-05
12.0011 2.99675 5.20146e-05
8 2.99637 6.91828e-05
3.99886 2.99675 5.20146e-05
-0.00160869 2.99663 6.3552e-05
0.00114177 -0.0350593 8
4.00114 -0.0324543 8
8 -0.0363549 8
11.9989 -0.0324543 8
15.9989 -0.0350593 8
15.9986 2.96494 8
11.9975 2.96818 8
8 2.96315 8
4.00255 2.96818 8
0.00141096 2.96494 8
0 0 16
4 0 16
8 0 16
12 0 16
16 0 16
16.0016 2.99663 15.9999
12.0011 2.99675 15.9999
8 2.99637 15.9999
3.99886 2.99675 15.9999
-0.00160869 2.99663 15.9999
      </DataArray>
    </Points>
    <Cells>
      <DataArray type="Int32" Name="connectivity" format="ascii">
0 1
1 2
2 3
3 4
4 5
5 6
6 7
7 8
8 9
9 0
8 1
7 2
6 3
10 11
11 12
12 13
13 14
14 15
15 16
16 17
17 18
18 19
19 10
18 11
17 12
16 13
20 21
21 22
22 23
23 24
24 25
25 26
26 27
27 28
28 29
20 29
28 21
22 27
23 26
20 10
10 0
29 19
19 9
21 11
28 18
11 1
18 8
22 12
27 17
12 2
17 7
23 13
26 16
13 3
16 6
24 14
25 15
15 5
14 4
25 23
29 21
19 11
9 1
15 13
5 3
8 2
6 2
18 12
16 12
28 22
26 22
19 20
19 0
21 18
18 1
22 17
17 2
23 16
16 3
15 24
15 4
20 18
18 0
24 16
16 4
      </DataArray>
      <DataArray type="Int32" Name="offsets" format="ascii">
2
4
6
8
10
12
14
16
18
20
22
24
26
28
30
32
34
36
38
40
42
44
46
48
50
52
54
56
58
60
62
64
66
68
70
72
74
76
78
80
82
84
86
88
90
92
94
96
98
100
102
104
106
108
110
112
114
116
118
120
122
124
126
128
130
132
134
136
138
140
142
144
146
148
150
152
154
156
158
160
162
164
166
168
170
      </DataArray>
      <DataArray type="UInt8" Name="types" format="ascii">
4
4
4
4
4
4
4
4
4
4
4
4
4
4
4
4
4
4
4
4
4
4
4
4
4
4
4
4
4
4
4
4
4
4
4
4
4
4
4
4
4
4
4
4
4
4
4
4
4
4
4
4
4
4
4
4
4
4
4
4
4
4
4
4
4
4
4
4
4
4
4
4
4
4
4
4
4
4
4
4
4
4
4
4
4
      </DataArray>
    </Cells>
    <PointData>
      <DataArray type="Float64" NumberOfComponents="3" Name="Displacement" format="ascii">
0 0 0
0 0 0
0 0 0
0 0 0
0 0 0
0.00160869 -0.00336612 6.3552e-05
0.00113814 -0.0032543 5.20146e-05
0 -0.00362944 6.91828e-05
-0.00113814 -0.0032543 5.20146e-05
-0.00160869 -0.00336612 6.3552e-05
0.00114177 -0.0350593 0
0.00114093 -0.0324543 0
0 -0.0363549 0
-0.00114093 -0.0324543 0
-0.00114177 -0.0350593 0
-0.00141096 -0.0350596 0
-0.00254544 -0.0318162 0
0 -0.0368509 0
0.00254544 -0.0318162 0
0.00141096 -0.0350596 0
0 0 0
0 0 0
0 0 0
0 0 0
0 0 0
0.00160869 -0.00336612 -6.3552e-05
0.00113814 -0.0032543 -5.20146e-05
0 -0.00362944 -6.91828e-05
-0.00113814 -0.0032543 -5.20146e-05
-0.00160869 -0.00336612 -6.3552e-05
      </DataArray> 
      <DataArray type="Float64" NumberOfComponents="3" Name="Velocity" format="ascii">
0 0 0
0 0 0
0 0 0
0 0 0
0 0 0
0 0 0
0 0 0
0 0 0
0 0 0
0 0 0
0 0 0
0 0 0
0 0 0
0 0 0
0 0 0
0 0 0
0 0 0
0 0 0
0 0 0
0 0 0
0 0 0
0 0 0
0 0 0
0 0 0
0 0 0
0 0 0
0 0 0
0 0 0
0 0 0
0 0 0
      </DataArray> 
      <DataArray type="Float64" NumberOfComponents="3" Name="Acceleration" format="ascii">
0 0 0
0 0 0
0 0 0
0 0 0
0 0 0
0 0 0
0 0 0
0 0 0
0 0 0
0 0 0
0 0 0
0 0 0
0 0 0
0 0 0
0 0 0
0 0 0
0 0 0
0 0 0
0 0 0
0 0 0
0 0 0
0 0 0
0 0 0
0 0 0
0 0 0
0 0 0
0 0 0
0 0 0
0 0 0
0 0 0
      </DataArray> 
    </PointData>
    <CellData>
    </CellData>
  </Piece>
  </UnstructuredGrid>
</VTKFile>
