<?xml version="1.0"?>
<VTKFile type="UnstructuredGrid">
  <UnstructuredGrid>
  <Piece NumberOfPoints="30"  NumberOfCells="85">
    <Points>
      <DataArray type="Float64" NumberOfComponents="3" format="ascii">
0 0 0
4 0 0
8 0 0
12 0 0
16 0 0
16.0025 2.99481 0.000153882
12.0018 2.99498 0.000126288
8 2.99441 0.000167912
3.99824 2.99498 0.000126288
-0.00248142 2.99481 0.000153882
0.00176908 -0.0544634 8
4.00177 -0.0504665 8
8 -0.0565382 8
11.9982 -0.0504665 8
15.9982 -0.0544634 8
15.9978 2.94554 8
11.996 2.95052 8
8 2.94269 8
4.00396 2.95052 8
0.00220949 2.94554 8
0 0 16
4 0 16
8 0 16
12 0 16
16 0 16
16.0025 2.99481 15.9998
12.0018 2.99498 15.9999
8 2.99441 15.9998
3.99824 2.99498 15.9999
-0.00248142 2.99481 15.9998
      </DataArray>
    </Points>
    <Cells>
      <DataArray type="Int32" Name="connectivity" format="ascii">
0 1
1 2
2 3
3 4
4 5
5 6
6 7
7 8
8 9
9 0
8 1
7 2
6 3
10 11
11 12
12 13
13 14
14 15
15 16
16 17
17 18
18 19
19 10
18 11
17 12
16 13
20 21
21 22
22 23
23 24
24 25
25 26
26 27
27 28
28 29
20 29
28 21
22 27
23 26
20 10
10 0
29 19
19 9
21 11
28 18
11 1
18 8
22 12
27 17
12 2
17 7
23 13
26 16
13 3
16 6
24 14
25 15
15 5
14 4
25 23
29 21
19 11
9 1
15 13
5 3
8 2
6 2
18 12
16 12
28 22
26 22
19 20
19 0
21 18
18 1
22 17
17 2
23 16
16 3
15 24
15 4
20 18
18 0
24 16
16 4
      </DataArray>
      <DataArray type="Int32" Name="offsets" format="ascii">
2
4
6
8
10
12
14
16
18
20
22
24
26
28
30
32
34
36
38
40
42
44
46
48
50
52
54
56
58
60
62
64
66
68
70
72
74
76
78
80
82
84
86
88
90
92
94
96
98
100
102
104
106
108
110
112
114
116
118
120
122
124
126
128
130
132
134
136
138
140
142
144
146
148
150
152
154
156
158
160
162
164
166
168
170
      </DataArray>
      <DataArray type="UInt8" Name="types" format="ascii">
4
4
4
4
4
4
4
4
4
4
4
4
4
4
4
4
4
4
4
4
4
4
4
4
4
4
4
4
4
4
4
4
4
4
4
4
4
4
4
4
4
4
4
4
4
4
4
4
4
4
4
4
4
4
4
4
4
4
4
4
4
4
4
4
4
4
4
4
4
4
4
4
4
4
4
4
4
4
4
4
4
4
4
4
4
      </DataArray>
    </Cells>
    <PointData>
      <DataArray type="Float64" NumberOfComponents="3" Name="Displacement" format="ascii">
0 0 0
0 0 0
0 0 0
0 0 0
0 0 0
0.00248142 -0.00518945 0.000153882
0.00175531 -0.0050166 0.000126288
0 -0.00559463 0.000167912
-0.00175531 -0.0050166 0.000126288
-0.00248142 -0.00518945 0.000153882
0.00176908 -0.0544634 0
0.00176712 -0.0504665 0
1.77636e-15 -0.0565382 0
-0.00176712 -0.0504665 0
-0.00176908 -0.0544634 0
-0.00220949 -0.0544644 0
-0.0039611 -0.0494815 0
1.77636e-15 -0.0573091 0
0.0039611 -0.0494815 0
0.00220949 -0.0544644 0
0 0 0
0 0 0
0 0 0
0 0 0
0 0 0
0.00248142 -0.00518945 -0.000153882
0.00175531 -0.0050166 -0.000126288
0 -0.00559463 -0.000167912
-0.00175531 -0.0050166 -0.000126288
-0.00248142 -0.00518945 -0.000153882
      </DataArray> 
      <DataArray type="Float64" NumberOfComponents="3" Name="Velocity" format="ascii">
0 0 0
0 0 0
0 0 0
0 0 0
0 0 0
0 0 0
0 0 0
0 0 0
0 0 0
0 0 0
0 0 0
0 0 0
0 0 0
0 0 0
0 0 0
0 0 0
0 0 0
0 0 0
0 0 0
0 0 0
0 0 0
0 0 0
0 0 0
0 0 0
0 0 0
0 0 0
0 0 0
0 0 0
0 0 0
0 0 0
      </DataArray> 
      <DataArray type="Float64" NumberOfComponents="3" Name="Acceleration" format="ascii">
0 0 0
0 0 0
0 0 0
0 0 0
0 0 0
0 0 0
0 0 0
0 0 0
0 0 0
0 0 0
0 0 0
0 0 0
0 0 0
0 0 0
0 0 0
0 0 0
0 0 0
0 0 0
0 0 0
0 0 0
0 0 0
0 0 0
0 0 0
0 0 0
0 0 0
0 0 0
0 0 0
0 0 0
0 0 0
0 0 0
      </DataArray> 
    </PointData>
    <CellData>
    </CellData>
  </Piece>
  </UnstructuredGrid>
</VTKFile>
