<?xml version="1.0"?>
<VTKFile type="UnstructuredGrid">
  <UnstructuredGrid>
  <Piece NumberOfPoints="30"  NumberOfCells="85">
    <Points>
      <DataArray type="Float64" NumberOfComponents="3" format="ascii">
0 0 0
4 0 0
8 0 0
12 0 0
16 0 0
16.0002 2.99954 1.17172e-06
12.0002 2.99955 9.55025e-07
8 2.9995 1.27097e-06
3.99984 2.99955 9.55025e-07
-0.000221432 2.99954 1.17172e-06
0.000156047 -0.00477306 8
4.00016 -0.00441176 8
8 -0.00494117 8
11.9998 -0.00441176 8
15.9998 -0.00477306 8
15.9998 2.99523 8
11.9997 2.99568 8
8 2.99499 8
4.00035 2.99568 8
0.000189722 2.99523 8
0 0 16
4 0 16
8 0 16
12 0 16
16 0 16
16.0002 2.99954 16
12.0002 2.99955 16
8 2.9995 16
3.99984 2.99955 16
-0.000221432 2.99954 16
      </DataArray>
    </Points>
    <Cells>
      <DataArray type="Int32" Name="connectivity" format="ascii">
0 1
1 2
2 3
3 4
4 5
5 6
6 7
7 8
8 9
9 0
8 1
7 2
6 3
10 11
11 12
12 13
13 14
14 15
15 16
16 17
17 18
18 19
19 10
18 11
17 12
16 13
20 21
21 22
22 23
23 24
24 25
25 26
26 27
27 28
28 29
20 29
28 21
22 27
23 26
20 10
10 0
29 19
19 9
21 11
28 18
11 1
18 8
22 12
27 17
12 2
17 7
23 13
26 16
13 3
16 6
24 14
25 15
15 5
14 4
25 23
29 21
19 11
9 1
15 13
5 3
8 2
6 2
18 12
16 12
28 22
26 22
19 20
19 0
21 18
18 1
22 17
17 2
23 16
16 3
15 24
15 4
20 18
18 0
24 16
16 4
      </DataArray>
      <DataArray type="Int32" Name="offsets" format="ascii">
2
4
6
8
10
12
14
16
18
20
22
24
26
28
30
32
34
36
38
40
42
44
46
48
50
52
54
56
58
60
62
64
66
68
70
72
74
76
78
80
82
84
86
88
90
92
94
96
98
100
102
104
106
108
110
112
114
116
118
120
122
124
126
128
130
132
134
136
138
140
142
144
146
148
150
152
154
156
158
160
162
164
166
168
170
      </DataArray>
      <DataArray type="UInt8" Name="types" format="ascii">
4
4
4
4
4
4
4
4
4
4
4
4
4
4
4
4
4
4
4
4
4
4
4
4
4
4
4
4
4
4
4
4
4
4
4
4
4
4
4
4
4
4
4
4
4
4
4
4
4
4
4
4
4
4
4
4
4
4
4
4
4
4
4
4
4
4
4
4
4
4
4
4
4
4
4
4
4
4
4
4
4
4
4
4
4
      </DataArray>
    </Cells>
    <PointData>
      <DataArray type="Float64" NumberOfComponents="3" Name="Displacement" format="ascii">
0 0 0
0 0 0
0 0 0
0 0 0
0 0 0
0.000221432 -0.000463736 1.17172e-06
0.000156699 -0.000448398 9.55025e-07
0 -0.000500122 1.27097e-06
-0.000156699 -0.000448398 9.55025e-07
-0.000221432 -0.000463736 1.17172e-06
0.000156047 -0.00477306 0
0.000156031 -0.00441176 0
1.77636e-15 -0.00494117 0
-0.000156031 -0.00441176 0
-0.000156047 -0.00477306 0
-0.000189722 -0.00477306 0
-0.000345632 -0.00432406 0
1.77636e-15 -0.0050087 0
0.000345632 -0.00432406 0
0.000189722 -0.00477306 0
0 0 0
0 0 0
0 0 0
0 0 0
0 0 0
0.000221432 -0.000463736 -1.17172e-06
0.000156699 -0.000448398 -9.55025e-07
0 -0.000500122 -1.27097e-06
-0.000156699 -0.000448398 -9.55025e-07
-0.000221432 -0.000463736 -1.17172e-06
      </DataArray> 
      <DataArray type="Float64" NumberOfComponents="3" Name="Velocity" format="ascii">
0 0 0
0 0 0
0 0 0
0 0 0
0 0 0
0 0 0
0 0 0
0 0 0
0 0 0
0 0 0
0 0 0
0 0 0
0 0 0
0 0 0
0 0 0
0 0 0
0 0 0
0 0 0
0 0 0
0 0 0
0 0 0
0 0 0
0 0 0
0 0 0
0 0 0
0 0 0
0 0 0
0 0 0
0 0 0
0 0 0
      </DataArray> 
      <DataArray type="Float64" NumberOfComponents="3" Name="Acceleration" format="ascii">
0 0 0
0 0 0
0 0 0
0 0 0
0 0 0
0 0 0
0 0 0
0 0 0
0 0 0
0 0 0
0 0 0
0 0 0
0 0 0
0 0 0
0 0 0
0 0 0
0 0 0
0 0 0
0 0 0
0 0 0
0 0 0
0 0 0
0 0 0
0 0 0
0 0 0
0 0 0
0 0 0
0 0 0
0 0 0
0 0 0
      </DataArray> 
    </PointData>
    <CellData>
    </CellData>
  </Piece>
  </UnstructuredGrid>
</VTKFile>
