<?xml version="1.0"?>
<VTKFile type="UnstructuredGrid">
  <UnstructuredGrid>
  <Piece NumberOfPoints="36"  NumberOfCells="69">
    <Points>
      <DataArray type="Float64" NumberOfComponents="3" format="ascii">
0 0 0
-0.000168728 0.999968 0
-0.000421534 1.99996 0
-0.0006153 2.99999 0
-0.000606917 4.00004 0
-0.000235645 5.00012 0
0.000878535 6.00012 0
0.400878 5.99978 0
3.40097 5.9952 0
6.40079 5.9915 0
9.40033 5.99145 0
12.3999 5.99508 0
15.3997 5.9997 0
15.7997 6.00005 0
15.8007 4.99997 0
15.801 3.99992 0
15.8009 2.9999 0
15.8006 1.9999 0
15.8002 0.999937 0
15.8 0 0
15.4 0 0
15.4003 1 0
15.4006 1.99998 0
15.4009 2.99992 0
15.401 3.99984 0
15.4008 4.99973 0
12.4009 4.99511 0
9.40074 4.99149 0
6.40032 4.9915 0
3.39989 4.99517 0
0.399751 4.99986 0
0.399398 3.99995 0
0.399389 3 0
0.399583 2.00003 0
0.399836 1.00003 0
0.4 0 0
      </DataArray>
    </Points>
    <Cells>
      <DataArray type="Int32" Name="connectivity" format="ascii">
0 1
1 2
2 3
3 4
4 5
5 6
6 7
7 8
8 9
9 10
10 11
11 12
12 13
13 14
14 15
15 16
16 17
17 18
18 19
19 20
20 21
21 22
22 23
23 24
24 25
25 26
26 27
27 28
28 29
29 30
30 31
31 32
32 33
33 34
34 35
0 35
0 34
1 34
1 33
2 33
2 32
3 32
3 31
4 31
4 30
5 30
5 7
30 7
30 8
29 8
29 9
28 9
28 10
27 10
27 11
26 11
26 12
25 12
25 13
25 14
24 14
24 15
23 15
23 16
22 16
22 17
21 17
21 18
20 18
      </DataArray>
      <DataArray type="Int32" Name="offsets" format="ascii">
2
4
6
8
10
12
14
16
18
20
22
24
26
28
30
32
34
36
38
40
42
44
46
48
50
52
54
56
58
60
62
64
66
68
70
72
74
76
78
80
82
84
86
88
90
92
94
96
98
100
102
104
106
108
110
112
114
116
118
120
122
124
126
128
130
132
134
136
138
      </DataArray>
      <DataArray type="UInt8" Name="types" format="ascii">
4
4
4
4
4
4
4
4
4
4
4
4
4
4
4
4
4
4
4
4
4
4
4
4
4
4
4
4
4
4
4
4
4
4
4
4
4
4
4
4
4
4
4
4
4
4
4
4
4
4
4
4
4
4
4
4
4
4
4
4
4
4
4
4
4
4
4
4
4
      </DataArray>
    </Cells>
    <PointData>
      <DataArray type="Float64" NumberOfComponents="3" Name="Displacement" format="ascii">
0 0 0
-0.000168728 -3.23243e-05 0
-0.000421534 -3.60498e-05 0
-0.0006153 -1.11535e-05 0
-0.000606917 4.23513e-05 0
-0.000235645 0.000124351 0
0.000878535 0.00012373 0
0.000878388 -0.000219389 0
0.000973391 -0.00479588 0
0.000790427 -0.0085038 0
0.000330471 -0.00854525 0
-0.000132062 -0.00491809 0
-0.000317552 -0.00030195 0
-0.000304857 5.2243e-05 0
0.000749588 -2.75206e-05 0
0.000984875 -7.92434e-05 0
0.000884003 -0.000102391 0
0.000590046 -9.68834e-05 0
0.000246136 -6.27367e-05 0
0 0 0
0 0 0
0.000250721 3.1491e-06 0
0.000594632 -2.2352e-05 0
0.000888585 -7.64592e-05 0
0.000989467 -0.000159139 0
0.000754261 -0.000270428 0
0.000888433 -0.00488662 0
0.000742935 -0.00851407 0
0.000317069 -0.00850356 0
-0.000106123 -0.00482629 0
-0.000248889 -0.000136636 0
-0.000602365 -5.20536e-05 0
-0.000610727 3.8643e-06 0
-0.000416962 3.11863e-05 0
-0.000164155 2.99056e-05 0
0 0 0
      </DataArray> 
      <DataArray type="Float64" NumberOfComponents="3" Name="Velocity" format="ascii">
0 0 0
0 0 0
0 0 0
0 0 0
0 0 0
0 0 0
0 0 0
0 0 0
0 0 0
0 0 0
0 0 0
0 0 0
0 0 0
0 0 0
0 0 0
0 0 0
0 0 0
0 0 0
0 0 0
0 0 0
0 0 0
0 0 0
0 0 0
0 0 0
0 0 0
0 0 0
0 0 0
0 0 0
0 0 0
0 0 0
0 0 0
0 0 0
0 0 0
0 0 0
0 0 0
0 0 0
      </DataArray> 
      <DataArray type="Float64" NumberOfComponents="3" Name="Acceleration" format="ascii">
0 0 0
0 0 0
0 0 0
0 0 0
0 0 0
0 0 0
0 0 0
0 0 0
0 0 0
0 0 0
0 0 0
0 0 0
0 0 0
0 0 0
0 0 0
0 0 0
0 0 0
0 0 0
0 0 0
0 0 0
0 0 0
0 0 0
0 0 0
0 0 0
0 0 0
0 0 0
0 0 0
0 0 0
0 0 0
0 0 0
0 0 0
0 0 0
0 0 0
0 0 0
0 0 0
0 0 0
      </DataArray> 
    </PointData>
    <CellData>
    </CellData>
  </Piece>
  </UnstructuredGrid>
</VTKFile>
