<?xml version="1.0"?>
<VTKFile type="UnstructuredGrid">
  <UnstructuredGrid>
  <Piece NumberOfPoints="36"  NumberOfCells="69">
    <Points>
      <DataArray type="Float64" NumberOfComponents="3" format="ascii">
0 0 0
-0.000981177 0.999812 0
-0.00244416 1.99979 0
-0.00354915 2.99994 0
-0.00345672 4.00025 0
-0.0012265 5.00073 0
0.00535407 6.00071 0
0.405349 5.99868 0
3.4058 5.97167 0
6.40466 5.94982 0
9.40194 5.94958 0
12.3992 5.97096 0
15.398 5.9982 0
15.798 6.00029 0
15.8043 4.99984 0
15.8057 3.99954 0
15.8051 2.9994 0
15.8034 1.99943 0
15.8014 0.999633 0
15.8 0 0
15.4 0 0
15.4015 1.00002 0
15.4035 1.99986 0
15.4052 2.99954 0
15.4057 3.99905 0
15.4043 4.9984 0
12.4052 4.97116 0
9.40437 4.94977 0
6.40186 4.94983 0
3.39943 4.97151 0
0.398693 4.99918 0
0.396569 3.99968 0
0.396477 3.00001 0
0.397582 2.00018 0
0.399045 1.00017 0
0.4 0 0
      </DataArray>
    </Points>
    <Cells>
      <DataArray type="Int32" Name="connectivity" format="ascii">
0 1
1 2
2 3
3 4
4 5
5 6
6 7
7 8
8 9
9 10
10 11
11 12
12 13
13 14
14 15
15 16
16 17
17 18
18 19
19 20
20 21
21 22
22 23
23 24
24 25
25 26
26 27
27 28
28 29
29 30
30 31
31 32
32 33
33 34
34 35
0 35
0 34
1 34
1 33
2 33
2 32
3 32
3 31
4 31
4 30
5 30
5 7
30 7
30 8
29 8
29 9
28 9
28 10
27 10
27 11
26 11
26 12
25 12
25 13
25 14
24 14
24 15
23 15
23 16
22 16
22 17
21 17
21 18
20 18
      </DataArray>
      <DataArray type="Int32" Name="offsets" format="ascii">
2
4
6
8
10
12
14
16
18
20
22
24
26
28
30
32
34
36
38
40
42
44
46
48
50
52
54
56
58
60
62
64
66
68
70
72
74
76
78
80
82
84
86
88
90
92
94
96
98
100
102
104
106
108
110
112
114
116
118
120
122
124
126
128
130
132
134
136
138
      </DataArray>
      <DataArray type="UInt8" Name="types" format="ascii">
4
4
4
4
4
4
4
4
4
4
4
4
4
4
4
4
4
4
4
4
4
4
4
4
4
4
4
4
4
4
4
4
4
4
4
4
4
4
4
4
4
4
4
4
4
4
4
4
4
4
4
4
4
4
4
4
4
4
4
4
4
4
4
4
4
4
4
4
4
      </DataArray>
    </Cells>
    <PointData>
      <DataArray type="Float64" NumberOfComponents="3" Name="Displacement" format="ascii">
0 0 0
-0.000981177 -0.000187669 0
-0.00244416 -0.000208222 0
-0.00354915 -6.08859e-05 0
-0.00345672 0.000253831 0
-0.0012265 0.000731932 0
0.00535407 0.00071028 0
0.00534892 -0.00132081 0
0.00580448 -0.0283292 0
0.00465794 -0.050181 0
0.00194287 -0.0504173 0
-0.000849538 -0.0290373 0
-0.00204736 -0.00180385 0
-0.00197748 0.000294824 0
0.00425721 -0.000156627 0
0.00568773 -0.00046042 0
0.00513552 -0.000598017 0
0.00343874 -0.000566628 0
0.0014377 -0.000366726 0
0 0 0
0 0 0
0.00146475 1.52948e-05 0
0.00346583 -0.000138258 0
0.00516245 -0.000459141 0
0.00571502 -0.000946223 0
0.00428734 -0.00160087 0
0.00517376 -0.0288364 0
0.00437391 -0.0502263 0
0.00186368 -0.0501713 0
-0.000565892 -0.0284907 0
-0.00130735 -0.000816378 0
-0.00343082 -0.00031683 0
-0.00352252 1.32613e-05 0
-0.00241754 0.000176321 0
-0.000954552 0.000172152 0
0 0 0
      </DataArray> 
      <DataArray type="Float64" NumberOfComponents="3" Name="Velocity" format="ascii">
0 0 0
0 0 0
0 0 0
0 0 0
0 0 0
0 0 0
0 0 0
0 0 0
0 0 0
0 0 0
0 0 0
0 0 0
0 0 0
0 0 0
0 0 0
0 0 0
0 0 0
0 0 0
0 0 0
0 0 0
0 0 0
0 0 0
0 0 0
0 0 0
0 0 0
0 0 0
0 0 0
0 0 0
0 0 0
0 0 0
0 0 0
0 0 0
0 0 0
0 0 0
0 0 0
0 0 0
      </DataArray> 
      <DataArray type="Float64" NumberOfComponents="3" Name="Acceleration" format="ascii">
0 0 0
0 0 0
0 0 0
0 0 0
0 0 0
0 0 0
0 0 0
0 0 0
0 0 0
0 0 0
0 0 0
0 0 0
0 0 0
0 0 0
0 0 0
0 0 0
0 0 0
0 0 0
0 0 0
0 0 0
0 0 0
0 0 0
0 0 0
0 0 0
0 0 0
0 0 0
0 0 0
0 0 0
0 0 0
0 0 0
0 0 0
0 0 0
0 0 0
0 0 0
0 0 0
0 0 0
      </DataArray> 
    </PointData>
    <CellData>
    </CellData>
  </Piece>
  </UnstructuredGrid>
</VTKFile>
