<?xml version="1.0"?>
<VTKFile type="UnstructuredGrid">
  <UnstructuredGrid>
  <Piece NumberOfPoints="36"  NumberOfCells="69">
    <Points>
      <DataArray type="Float64" NumberOfComponents="3" format="ascii">
0 0 0
-0.00092398 0.999823 0
-0.00230216 1.9998 0
-0.00334423 2.99994 0
-0.00326017 4.00024 0
-0.00116481 5.00069 0
0.00502527 6.00067 0
0.405021 5.99876 0
3.40546 5.97335 0
6.40438 5.95279 0
9.40183 5.95257 0
12.3992 5.97269 0
15.3981 5.9983 0
15.7982 6.00028 0
15.804 4.99985 0
15.8054 3.99957 0
15.8048 2.99944 0
15.8032 1.99947 0
15.8014 0.999655 0
15.8 0 0
15.4 0 0
15.4014 1.00001 0
15.4033 1.99987 0
15.4049 2.99957 0
15.4054 3.99911 0
15.404 4.99849 0
12.4049 4.97287 0
9.40412 4.95275 0
6.40175 4.9528 0
3.39946 4.9732 0
0.398759 4.99923 0
0.396764 3.9997 0
0.396681 3.00001 0
0.397723 2.00017 0
0.399101 1.00016 0
0.4 0 0
      </DataArray>
    </Points>
    <Cells>
      <DataArray type="Int32" Name="connectivity" format="ascii">
0 1
1 2
2 3
3 4
4 5
5 6
6 7
7 8
8 9
9 10
10 11
11 12
12 13
13 14
14 15
15 16
16 17
17 18
18 19
19 20
20 21
21 22
22 23
23 24
24 25
25 26
26 27
27 28
28 29
29 30
30 31
31 32
32 33
33 34
34 35
0 35
0 34
1 34
1 33
2 33
2 32
3 32
3 31
4 31
4 30
5 30
5 7
30 7
30 8
29 8
29 9
28 9
28 10
27 10
27 11
26 11
26 12
25 12
25 13
25 14
24 14
24 15
23 15
23 16
22 16
22 17
21 17
21 18
20 18
      </DataArray>
      <DataArray type="Int32" Name="offsets" format="ascii">
2
4
6
8
10
12
14
16
18
20
22
24
26
28
30
32
34
36
38
40
42
44
46
48
50
52
54
56
58
60
62
64
66
68
70
72
74
76
78
80
82
84
86
88
90
92
94
96
98
100
102
104
106
108
110
112
114
116
118
120
122
124
126
128
130
132
134
136
138
      </DataArray>
      <DataArray type="UInt8" Name="types" format="ascii">
4
4
4
4
4
4
4
4
4
4
4
4
4
4
4
4
4
4
4
4
4
4
4
4
4
4
4
4
4
4
4
4
4
4
4
4
4
4
4
4
4
4
4
4
4
4
4
4
4
4
4
4
4
4
4
4
4
4
4
4
4
4
4
4
4
4
4
4
4
      </DataArray>
    </Cells>
    <PointData>
      <DataArray type="Float64" NumberOfComponents="3" Name="Displacement" format="ascii">
0 0 0
-0.00092398 -0.000176751 0
-0.00230216 -0.000196183 0
-0.00334423 -5.76119e-05 0
-0.00326017 0.000238516 0
-0.00116481 0.000688666 0
0.00502527 0.000669507 0
0.00502071 -0.00124075 0
0.00545632 -0.0266478 0
0.00438223 -0.0472061 0
0.00182817 -0.047429 0
-0.000794468 -0.0273149 0
-0.00191435 -0.00169543 0
-0.00184827 0.00027825 0
0.00401598 -0.000147733 0
0.00535886 -0.000433616 0
0.0048365 -0.000562987 0
0.00323777 -0.000533381 0
0.00135346 -0.00034522 0
0 0 0
0 0 0
0.00137891 1.4608e-05 0
0.00326326 -0.000129638 0
0.00486185 -0.000431394 0
0.00538453 -0.000889656 0
0.00404415 -0.00150563 0
0.00487166 -0.0271269 0
0.00411528 -0.0472498 0
0.00175369 -0.0471976 0
-0.000536391 -0.026801 0
-0.00124068 -0.000767302 0
-0.00323574 -0.000297402 0
-0.00331915 1.31114e-05 0
-0.0022771 0.000166383 0
-0.00089891 0.000162236 0
0 0 0
      </DataArray> 
      <DataArray type="Float64" NumberOfComponents="3" Name="Velocity" format="ascii">
0 0 0
0 0 0
0 0 0
0 0 0
0 0 0
0 0 0
0 0 0
0 0 0
0 0 0
0 0 0
0 0 0
0 0 0
0 0 0
0 0 0
0 0 0
0 0 0
0 0 0
0 0 0
0 0 0
0 0 0
0 0 0
0 0 0
0 0 0
0 0 0
0 0 0
0 0 0
0 0 0
0 0 0
0 0 0
0 0 0
0 0 0
0 0 0
0 0 0
0 0 0
0 0 0
0 0 0
      </DataArray> 
      <DataArray type="Float64" NumberOfComponents="3" Name="Acceleration" format="ascii">
0 0 0
0 0 0
0 0 0
0 0 0
0 0 0
0 0 0
0 0 0
0 0 0
0 0 0
0 0 0
0 0 0
0 0 0
0 0 0
0 0 0
0 0 0
0 0 0
0 0 0
0 0 0
0 0 0
0 0 0
0 0 0
0 0 0
0 0 0
0 0 0
0 0 0
0 0 0
0 0 0
0 0 0
0 0 0
0 0 0
0 0 0
0 0 0
0 0 0
0 0 0
0 0 0
0 0 0
      </DataArray> 
    </PointData>
    <CellData>
    </CellData>
  </Piece>
  </UnstructuredGrid>
</VTKFile>
