<?xml version="1.0"?>
<VTKFile type="UnstructuredGrid">
  <UnstructuredGrid>
  <Piece NumberOfPoints="36"  NumberOfCells="69">
    <Points>
      <DataArray type="Float64" NumberOfComponents="3" format="ascii">
0 0 0
-0.00049348 0.999906 0
-0.00123146 1.99989 0
-0.00179388 2.99997 0
-0.00176074 4.00013 0
-0.000660796 5.00037 0
0.00261793 6.00036 0
0.402617 5.99935 0
3.40288 5.98589 0
6.40232 5.97498 0
9.40097 5.97486 0
12.3996 5.98553 0
15.399 5.99911 0
15.7991 6.00015 0
15.8022 4.99992 0
15.8029 3.99977 0
15.8026 2.9997 0
15.8017 1.99972 0
15.8007 0.999816 0
15.8 0 0
15.4 0 0
15.4007 1.00001 0
15.4017 1.99993 0
15.4026 2.99977 0
15.4029 3.99953 0
15.4022 4.9992 0
12.4026 4.98562 0
9.40218 4.97496 0
6.40093 4.97499 0
3.3997 4.9858 0
0.3993 4.9996 0
0.398252 3.99984 0
0.39822 3.00001 0
0.398782 2.00009 0
0.39952 1.00009 0
0.4 0 0
      </DataArray>
    </Points>
    <Cells>
      <DataArray type="Int32" Name="connectivity" format="ascii">
0 1
1 2
2 3
3 4
4 5
5 6
6 7
7 8
8 9
9 10
10 11
11 12
12 13
13 14
14 15
15 16
16 17
17 18
18 19
19 20
20 21
21 22
22 23
23 24
24 25
25 26
26 27
27 28
28 29
29 30
30 31
31 32
32 33
33 34
34 35
0 35
0 34
1 34
1 33
2 33
2 32
3 32
3 31
4 31
4 30
5 30
5 7
30 7
30 8
29 8
29 9
28 9
28 10
27 10
27 11
26 11
26 12
25 12
25 13
25 14
24 14
24 15
23 15
23 16
22 16
22 17
21 17
21 18
20 18
      </DataArray>
      <DataArray type="Int32" Name="offsets" format="ascii">
2
4
6
8
10
12
14
16
18
20
22
24
26
28
30
32
34
36
38
40
42
44
46
48
50
52
54
56
58
60
62
64
66
68
70
72
74
76
78
80
82
84
86
88
90
92
94
96
98
100
102
104
106
108
110
112
114
116
118
120
122
124
126
128
130
132
134
136
138
      </DataArray>
      <DataArray type="UInt8" Name="types" format="ascii">
4
4
4
4
4
4
4
4
4
4
4
4
4
4
4
4
4
4
4
4
4
4
4
4
4
4
4
4
4
4
4
4
4
4
4
4
4
4
4
4
4
4
4
4
4
4
4
4
4
4
4
4
4
4
4
4
4
4
4
4
4
4
4
4
4
4
4
4
4
      </DataArray>
    </Cells>
    <PointData>
      <DataArray type="Float64" NumberOfComponents="3" Name="Displacement" format="ascii">
0 0 0
-0.00049348 -9.44817e-05 0
-0.00123146 -0.000105162 0
-0.00179388 -3.18448e-05 0
-0.00176074 0.00012535 0
-0.000660796 0.000365434 0
0.00261793 0.000360059 0
0.00261666 -0.000650546 0
0.00287538 -0.0141137 0
0.00232393 -0.0250156 0
0.000970706 -0.0251359 0
-0.000402378 -0.0144707 0
-0.000968428 -0.000892601 0
-0.000932073 0.000151024 0
0.00217224 -7.98245e-05 0
0.0028727 -0.000231703 0
0.00258447 -0.000299992 0
0.00172721 -0.000284005 0
0.000721139 -0.000183866 0
0 0 0
0 0 0
0.000734627 8.61269e-06 0
0.00174071 -6.70152e-05 0
0.00259793 -0.000226503 0
0.00288625 -0.000469563 0
0.00218649 -0.000796528 0
0.00259988 -0.0143751 0
0.00218348 -0.0250428 0
0.000931261 -0.0250133 0
-0.000300256 -0.0141997 0
-0.000700285 -0.000403934 0
-0.00174753 -0.000155042 0
-0.0017805 9.47449e-06 0
-0.00121809 9.02128e-05 0
-0.000480101 8.71181e-05 0
0 0 0
      </DataArray> 
      <DataArray type="Float64" NumberOfComponents="3" Name="Velocity" format="ascii">
0 0 0
0 0 0
0 0 0
0 0 0
0 0 0
0 0 0
0 0 0
0 0 0
0 0 0
0 0 0
0 0 0
0 0 0
0 0 0
0 0 0
0 0 0
0 0 0
0 0 0
0 0 0
0 0 0
0 0 0
0 0 0
0 0 0
0 0 0
0 0 0
0 0 0
0 0 0
0 0 0
0 0 0
0 0 0
0 0 0
0 0 0
0 0 0
0 0 0
0 0 0
0 0 0
0 0 0
      </DataArray> 
      <DataArray type="Float64" NumberOfComponents="3" Name="Acceleration" format="ascii">
0 0 0
0 0 0
0 0 0
0 0 0
0 0 0
0 0 0
0 0 0
0 0 0
0 0 0
0 0 0
0 0 0
0 0 0
0 0 0
0 0 0
0 0 0
0 0 0
0 0 0
0 0 0
0 0 0
0 0 0
0 0 0
0 0 0
0 0 0
0 0 0
0 0 0
0 0 0
0 0 0
0 0 0
0 0 0
0 0 0
0 0 0
0 0 0
0 0 0
0 0 0
0 0 0
0 0 0
      </DataArray> 
    </PointData>
    <CellData>
    </CellData>
  </Piece>
  </UnstructuredGrid>
</VTKFile>
