<?xml version="1.0"?>
<VTKFile type="UnstructuredGrid">
  <UnstructuredGrid>
  <Piece NumberOfPoints="36"  NumberOfCells="69">
    <Points>
      <DataArray type="Float64" NumberOfComponents="3" format="ascii">
0 0 0
-0.00064958 0.999876 0
-0.0016201 1.99986 0
-0.00235765 2.99996 0
-0.00230847 4.00017 0
-0.000851538 5.00048 0
0.00347723 6.00047 0
0.403475 5.99914 0
3.4038 5.98137 0
6.40307 5.96698 0
9.40128 5.96682 0
12.3995 5.9809 0
15.3987 5.99882 0
15.7987 6.0002 0
15.8028 4.9999 0
15.8038 3.9997 0
15.8034 2.9996 0
15.8023 1.99963 0
15.801 0.999758 0
15.8 0 0
15.4 0 0
15.401 1.00001 0
15.4023 1.99991 0
15.4034 2.9997 0
15.4038 3.99938 0
15.4029 4.99895 0
12.4034 4.98102 0
9.40288 4.96694 0
6.40123 4.96698 0
3.39961 4.98125 0
0.399096 4.99947 0
0.397709 3.99979 0
0.39766 3.00001 0
0.398398 2.00012 0
0.399368 1.00011 0
0.4 0 0
      </DataArray>
    </Points>
    <Cells>
      <DataArray type="Int32" Name="connectivity" format="ascii">
0 1
1 2
2 3
3 4
4 5
5 6
6 7
7 8
8 9
9 10
10 11
11 12
12 13
13 14
14 15
15 16
16 17
17 18
18 19
19 20
20 21
21 22
22 23
23 24
24 25
25 26
26 27
27 28
28 29
29 30
30 31
31 32
32 33
33 34
34 35
0 35
0 34
1 34
1 33
2 33
2 32
3 32
3 31
4 31
4 30
5 30
5 7
30 7
30 8
29 8
29 9
28 9
28 10
27 10
27 11
26 11
26 12
25 12
25 13
25 14
24 14
24 15
23 15
23 16
22 16
22 17
21 17
21 18
20 18
      </DataArray>
      <DataArray type="Int32" Name="offsets" format="ascii">
2
4
6
8
10
12
14
16
18
20
22
24
26
28
30
32
34
36
38
40
42
44
46
48
50
52
54
56
58
60
62
64
66
68
70
72
74
76
78
80
82
84
86
88
90
92
94
96
98
100
102
104
106
108
110
112
114
116
118
120
122
124
126
128
130
132
134
136
138
      </DataArray>
      <DataArray type="UInt8" Name="types" format="ascii">
4
4
4
4
4
4
4
4
4
4
4
4
4
4
4
4
4
4
4
4
4
4
4
4
4
4
4
4
4
4
4
4
4
4
4
4
4
4
4
4
4
4
4
4
4
4
4
4
4
4
4
4
4
4
4
4
4
4
4
4
4
4
4
4
4
4
4
4
4
      </DataArray>
    </Cells>
    <PointData>
      <DataArray type="Float64" NumberOfComponents="3" Name="Displacement" format="ascii">
0 0 0
-0.00064958 -0.00012433 0
-0.0016201 -0.000138248 0
-0.00235765 -4.14131e-05 0
-0.00230847 0.000165962 0
-0.000851538 0.000482151 0
0.00347723 0.000472782 0
0.00347501 -0.000862055 0
0.00380325 -0.0186342 0
0.00306686 -0.0330215 0
0.00128045 -0.0331793 0
-0.000540032 -0.0191038 0
-0.00130029 -0.00118105 0
-0.00125294 0.000197655 0
0.00284644 -0.000104641 0
0.00377639 -0.000304947 0
0.00340135 -0.000395218 0
0.00227453 -0.000374254 0
0.000950065 -0.000242269 0
0 0 0
0 0 0
0.000967869 1.09534e-05 0
0.00229235 -8.92663e-05 0
0.0034191 -0.000299998 0
0.00379429 -0.000620743 0
0.00286557 -0.00105209 0
0.00342323 -0.0189757 0
0.00288098 -0.0330555 0
0.00122837 -0.0330174 0
-0.000388721 -0.0187454 0
-0.000904005 -0.000534482 0
-0.00229117 -0.000205882 0
-0.00234003 1.13004e-05 0
-0.00160249 0.000118109 0
-0.000631964 0.000114453 0
0 0 0
      </DataArray> 
      <DataArray type="Float64" NumberOfComponents="3" Name="Velocity" format="ascii">
0 0 0
0 0 0
0 0 0
0 0 0
0 0 0
0 0 0
0 0 0
0 0 0
0 0 0
0 0 0
0 0 0
0 0 0
0 0 0
0 0 0
0 0 0
0 0 0
0 0 0
0 0 0
0 0 0
0 0 0
0 0 0
0 0 0
0 0 0
0 0 0
0 0 0
0 0 0
0 0 0
0 0 0
0 0 0
0 0 0
0 0 0
0 0 0
0 0 0
0 0 0
0 0 0
0 0 0
      </DataArray> 
      <DataArray type="Float64" NumberOfComponents="3" Name="Acceleration" format="ascii">
0 0 0
0 0 0
0 0 0
0 0 0
0 0 0
0 0 0
0 0 0
0 0 0
0 0 0
0 0 0
0 0 0
0 0 0
0 0 0
0 0 0
0 0 0
0 0 0
0 0 0
0 0 0
0 0 0
0 0 0
0 0 0
0 0 0
0 0 0
0 0 0
0 0 0
0 0 0
0 0 0
0 0 0
0 0 0
0 0 0
0 0 0
0 0 0
0 0 0
0 0 0
0 0 0
0 0 0
      </DataArray> 
    </PointData>
    <CellData>
    </CellData>
  </Piece>
  </UnstructuredGrid>
</VTKFile>
