<?xml version="1.0"?>
<VTKFile type="UnstructuredGrid">
  <UnstructuredGrid>
  <Piece NumberOfPoints="36"  NumberOfCells="69">
    <Points>
      <DataArray type="Float64" NumberOfComponents="3" format="ascii">
0 0 0
-0.000121205 0.999977 0
-0.000302857 1.99997 0
-0.0004422 2.99999 0
-0.000436483 4.00003 0
-0.000170282 5.00009 0
0.000629371 6.00009 0
0.400629 5.99984 0
3.4007 5.99656 0
6.40057 5.9939 0
9.40024 5.99387 0
12.3999 5.99647 0
15.3998 5.99978 0
15.7998 6.00004 0
15.8005 4.99998 0
15.8007 3.99994 0
15.8006 2.99993 0
15.8004 1.99993 0
15.8002 0.999955 0
15.8 0 0
15.4 0 0
15.4002 1 0
15.4004 1.99998 0
15.4006 2.99995 0
15.4007 3.99989 0
15.4005 4.99981 0
12.4006 4.99649 0
9.40053 4.99389 0
6.40023 4.9939 0
3.39992 4.99654 0
0.39982 4.9999 0
0.399567 3.99996 0
0.399561 3 0
0.3997 2.00002 0
0.399882 1.00002 0
0.4 0 0
      </DataArray>
    </Points>
    <Cells>
      <DataArray type="Int32" Name="connectivity" format="ascii">
0 1
1 2
2 3
3 4
4 5
5 6
6 7
7 8
8 9
9 10
10 11
11 12
12 13
13 14
14 15
15 16
16 17
17 18
18 19
19 20
20 21
21 22
22 23
23 24
24 25
25 26
26 27
27 28
28 29
29 30
30 31
31 32
32 33
33 34
34 35
0 35
0 34
1 34
1 33
2 33
2 32
3 32
3 31
4 31
4 30
5 30
5 7
30 7
30 8
29 8
29 9
28 9
28 10
27 10
27 11
26 11
26 12
25 12
25 13
25 14
24 14
24 15
23 15
23 16
22 16
22 17
21 17
21 18
20 18
      </DataArray>
      <DataArray type="Int32" Name="offsets" format="ascii">
2
4
6
8
10
12
14
16
18
20
22
24
26
28
30
32
34
36
38
40
42
44
46
48
50
52
54
56
58
60
62
64
66
68
70
72
74
76
78
80
82
84
86
88
90
92
94
96
98
100
102
104
106
108
110
112
114
116
118
120
122
124
126
128
130
132
134
136
138
      </DataArray>
      <DataArray type="UInt8" Name="types" format="ascii">
4
4
4
4
4
4
4
4
4
4
4
4
4
4
4
4
4
4
4
4
4
4
4
4
4
4
4
4
4
4
4
4
4
4
4
4
4
4
4
4
4
4
4
4
4
4
4
4
4
4
4
4
4
4
4
4
4
4
4
4
4
4
4
4
4
4
4
4
4
      </DataArray>
    </Cells>
    <PointData>
      <DataArray type="Float64" NumberOfComponents="3" Name="Displacement" format="ascii">
0 0 0
-0.000121205 -2.3222e-05 0
-0.000302857 -2.59057e-05 0
-0.0004422 -8.03932e-06 0
-0.000436483 3.03704e-05 0
-0.000170282 8.92646e-05 0
0.000629371 8.89449e-05 0
0.000629296 -0.000157281 0
0.000698219 -0.003442 0
0.000567368 -0.00610353 0
0.000237244 -0.00613334 0
-9.42931e-05 -0.00352981 0
-0.000226704 -0.000216567 0
-0.000217557 3.75913e-05 0
0.000539175 -1.97927e-05 0
0.000707756 -5.69259e-05 0
0.000635054 -7.35327e-05 0
0.000423803 -6.95725e-05 0
0.000176766 -4.50531e-05 0
0 0 0
0 0 0
0.000180057 2.28337e-06 0
0.000427095 -1.59981e-05 0
0.000638343 -5.48215e-05 0
0.00071105 -0.000114169 0
0.000542511 -0.000194061 0
0.000638149 -0.00350733 0
0.000533307 -0.00611101 0
0.000227626 -0.00610342 0
-7.65919e-05 -0.00346395 0
-0.000179768 -9.79989e-05 0
-0.000433209 -3.72929e-05 0
-0.000438915 2.84095e-06 0
-0.000299572 2.24381e-05 0
-0.00011792 2.14949e-05 0
0 0 0
      </DataArray> 
      <DataArray type="Float64" NumberOfComponents="3" Name="Velocity" format="ascii">
0 0 0
0 0 0
0 0 0
0 0 0
0 0 0
0 0 0
0 0 0
0 0 0
0 0 0
0 0 0
0 0 0
0 0 0
0 0 0
0 0 0
0 0 0
0 0 0
0 0 0
0 0 0
0 0 0
0 0 0
0 0 0
0 0 0
0 0 0
0 0 0
0 0 0
0 0 0
0 0 0
0 0 0
0 0 0
0 0 0
0 0 0
0 0 0
0 0 0
0 0 0
0 0 0
0 0 0
      </DataArray> 
      <DataArray type="Float64" NumberOfComponents="3" Name="Acceleration" format="ascii">
0 0 0
0 0 0
0 0 0
0 0 0
0 0 0
0 0 0
0 0 0
0 0 0
0 0 0
0 0 0
0 0 0
0 0 0
0 0 0
0 0 0
0 0 0
0 0 0
0 0 0
0 0 0
0 0 0
0 0 0
0 0 0
0 0 0
0 0 0
0 0 0
0 0 0
0 0 0
0 0 0
0 0 0
0 0 0
0 0 0
0 0 0
0 0 0
0 0 0
0 0 0
0 0 0
0 0 0
      </DataArray> 
    </PointData>
    <CellData>
    </CellData>
  </Piece>
  </UnstructuredGrid>
</VTKFile>
