<?xml version="1.0"?>
<VTKFile type="UnstructuredGrid">
  <UnstructuredGrid>
  <Piece NumberOfPoints="36"  NumberOfCells="69">
    <Points>
      <DataArray type="Float64" NumberOfComponents="3" format="ascii">
0 0 0
-0.000416283 0.99992 0
-0.00103911 1.99991 0
-0.00151441 2.99997 0
-0.0014882 4.00011 0
-0.00056317 5.00031 0
0.0021986 6.0003 0
0.402198 5.99945 0
3.40242 5.98811 0
6.40196 5.97893 0
9.40082 5.97883 0
12.3997 5.98781 0
15.3992 5.99925 0
15.7992 6.00013 0
15.8018 4.99993 0
15.8024 3.9998 0
15.8022 2.99975 0
15.8015 1.99976 0
15.8006 0.999845 0
15.8 0 0
15.4 0 0
15.4006 1.00001 0
15.4015 1.99994 0
15.4022 2.99981 0
15.4024 3.9996 0
15.4018 4.99933 0
12.4022 4.98789 0
9.40184 4.9789 0
6.40078 4.97893 0
3.39974 4.98804 0
0.399404 4.99966 0
0.398523 3.99987 0
0.398497 3.00001 0
0.398972 2.00008 0
0.399595 1.00007 0
0.4 0 0
      </DataArray>
    </Points>
    <Cells>
      <DataArray type="Int32" Name="connectivity" format="ascii">
0 1
1 2
2 3
3 4
4 5
5 6
6 7
7 8
8 9
9 10
10 11
11 12
12 13
13 14
14 15
15 16
16 17
17 18
18 19
19 20
20 21
21 22
22 23
23 24
24 25
25 26
26 27
27 28
28 29
29 30
30 31
31 32
32 33
33 34
34 35
0 35
0 34
1 34
1 33
2 33
2 32
3 32
3 31
4 31
4 30
5 30
5 7
30 7
30 8
29 8
29 9
28 9
28 10
27 10
27 11
26 11
26 12
25 12
25 13
25 14
24 14
24 15
23 15
23 16
22 16
22 17
21 17
21 18
20 18
      </DataArray>
      <DataArray type="Int32" Name="offsets" format="ascii">
2
4
6
8
10
12
14
16
18
20
22
24
26
28
30
32
34
36
38
40
42
44
46
48
50
52
54
56
58
60
62
64
66
68
70
72
74
76
78
80
82
84
86
88
90
92
94
96
98
100
102
104
106
108
110
112
114
116
118
120
122
124
126
128
130
132
134
136
138
      </DataArray>
      <DataArray type="UInt8" Name="types" format="ascii">
4
4
4
4
4
4
4
4
4
4
4
4
4
4
4
4
4
4
4
4
4
4
4
4
4
4
4
4
4
4
4
4
4
4
4
4
4
4
4
4
4
4
4
4
4
4
4
4
4
4
4
4
4
4
4
4
4
4
4
4
4
4
4
4
4
4
4
4
4
      </DataArray>
    </Cells>
    <PointData>
      <DataArray type="Float64" NumberOfComponents="3" Name="Displacement" format="ascii">
0 0 0
-0.000416283 -7.97134e-05 0
-0.00103911 -8.87671e-05 0
-0.00151441 -2.70211e-05 0
-0.0014882 0.00010544 0
-0.00056317 0.000307915 0
0.0021986 0.000304102 0
0.00219769 -0.000546979 0
0.00241981 -0.0118882 0
0.00195793 -0.0210731 0
0.00081801 -0.0211748 0
-0.00033617 -0.0121894 0
-0.000808908 -0.00075105 0
-0.000778083 0.000127757 0
0.00183649 -6.74726e-05 0
0.00242489 -0.000195471 0
0.00218037 -0.000252958 0
0.00145671 -0.000239446 0
0.000608073 -0.000155026 0
0 0 0
0 0 0
0.000619436 7.3861e-06 0
0.00146808 -5.62003e-05 0
0.00219171 -0.000190489 0
0.00243629 -0.000395274 0
0.00184839 -0.000670792 0
0.00219287 -0.0121095 0
0.00183976 -0.0210967 0
0.000784785 -0.0210715 0
-0.000255333 -0.0119613 0
-0.000596329 -0.000339873 0
-0.00147704 -0.000130222 0
-0.00150312 8.3612e-06 0
-0.00102782 7.63019e-05 0
-0.000404998 7.356e-05 0
0 0 0
      </DataArray> 
      <DataArray type="Float64" NumberOfComponents="3" Name="Velocity" format="ascii">
0 0 0
0 0 0
0 0 0
0 0 0
0 0 0
0 0 0
0 0 0
0 0 0
0 0 0
0 0 0
0 0 0
0 0 0
0 0 0
0 0 0
0 0 0
0 0 0
0 0 0
0 0 0
0 0 0
0 0 0
0 0 0
0 0 0
0 0 0
0 0 0
0 0 0
0 0 0
0 0 0
0 0 0
0 0 0
0 0 0
0 0 0
0 0 0
0 0 0
0 0 0
0 0 0
0 0 0
      </DataArray> 
      <DataArray type="Float64" NumberOfComponents="3" Name="Acceleration" format="ascii">
0 0 0
0 0 0
0 0 0
0 0 0
0 0 0
0 0 0
0 0 0
0 0 0
0 0 0
0 0 0
0 0 0
0 0 0
0 0 0
0 0 0
0 0 0
0 0 0
0 0 0
0 0 0
0 0 0
0 0 0
0 0 0
0 0 0
0 0 0
0 0 0
0 0 0
0 0 0
0 0 0
0 0 0
0 0 0
0 0 0
0 0 0
0 0 0
0 0 0
0 0 0
0 0 0
0 0 0
      </DataArray> 
    </PointData>
    <CellData>
    </CellData>
  </Piece>
  </UnstructuredGrid>
</VTKFile>
