<?xml version="1.0"?>
<VTKFile type="UnstructuredGrid">
  <UnstructuredGrid>
  <Piece NumberOfPoints="36"  NumberOfCells="69">
    <Points>
      <DataArray type="Float64" NumberOfComponents="3" format="ascii">
0 0 0
-0.000119043 0.999977 0
-0.000297458 1.99997 0
-0.000434323 2.99999 0
-0.000428722 4.00003 0
-0.00016729 5.00009 0
0.000618071 6.00009 0
0.400618 5.99985 0
3.40069 5.99662 0
6.40056 5.99401 0
9.40023 5.99398 0
12.3999 5.99653 0
15.3998 5.99979 0
15.7998 6.00004 0
15.8005 4.99998 0
15.8007 3.99994 0
15.8006 2.99993 0
15.8004 1.99993 0
15.8002 0.999956 0
15.8 0 0
15.4 0 0
15.4002 1 0
15.4004 1.99998 0
15.4006 2.99995 0
15.4007 3.99989 0
15.4005 4.99981 0
12.4006 4.99656 0
9.40052 4.994 0
6.40022 4.99401 0
3.39992 4.9966 0
0.399823 4.9999 0
0.399574 3.99996 0
0.399569 3 0
0.399706 2.00002 0
0.399884 1.00002 0
0.4 0 0
      </DataArray>
    </Points>
    <Cells>
      <DataArray type="Int32" Name="connectivity" format="ascii">
0 1
1 2
2 3
3 4
4 5
5 6
6 7
7 8
8 9
9 10
10 11
11 12
12 13
13 14
14 15
15 16
16 17
17 18
18 19
19 20
20 21
21 22
22 23
23 24
24 25
25 26
26 27
27 28
28 29
29 30
30 31
31 32
32 33
33 34
34 35
0 35
0 34
1 34
1 33
2 33
2 32
3 32
3 31
4 31
4 30
5 30
5 7
30 7
30 8
29 8
29 9
28 9
28 10
27 10
27 11
26 11
26 12
25 12
25 13
25 14
24 14
24 15
23 15
23 16
22 16
22 17
21 17
21 18
20 18
      </DataArray>
      <DataArray type="Int32" Name="offsets" format="ascii">
2
4
6
8
10
12
14
16
18
20
22
24
26
28
30
32
34
36
38
40
42
44
46
48
50
52
54
56
58
60
62
64
66
68
70
72
74
76
78
80
82
84
86
88
90
92
94
96
98
100
102
104
106
108
110
112
114
116
118
120
122
124
126
128
130
132
134
136
138
      </DataArray>
      <DataArray type="UInt8" Name="types" format="ascii">
4
4
4
4
4
4
4
4
4
4
4
4
4
4
4
4
4
4
4
4
4
4
4
4
4
4
4
4
4
4
4
4
4
4
4
4
4
4
4
4
4
4
4
4
4
4
4
4
4
4
4
4
4
4
4
4
4
4
4
4
4
4
4
4
4
4
4
4
4
      </DataArray>
    </Cells>
    <PointData>
      <DataArray type="Float64" NumberOfComponents="3" Name="Displacement" format="ascii">
0 0 0
-0.000119043 -2.2808e-05 0
-0.000297458 -2.54442e-05 0
-0.000434323 -7.89717e-06 0
-0.000428722 2.98264e-05 0
-0.00016729 8.767e-05 0
0.000618071 8.73616e-05 0
0.000617998 -0.000154462 0
0.000685723 -0.00338048 0
0.000557231 -0.00599446 0
0.000233007 -0.00602374 0
-9.2586e-05 -0.00346672 0
-0.000222598 -0.00021269 0
-0.000213613 3.69238e-05 0
0.000529592 -1.94408e-05 0
0.000695147 -5.59108e-05 0
0.000623731 -7.22206e-05 0
0.000416243 -6.83308e-05 0
0.000173612 -4.42491e-05 0
0 0 0
0 0 0
0.000176844 2.2436e-06 0
0.000419476 -1.57102e-05 0
0.000626962 -5.38393e-05 0
0.000698382 -0.000112127 0
0.000532868 -0.000190592 0
0.000626767 -0.00344465 0
0.00052378 -0.00600181 0
0.00022356 -0.00599435 0
-7.52421e-05 -0.00340205 0
-0.000176606 -9.62445e-05 0
-0.000425507 -3.66235e-05 0
-0.000431097 2.79319e-06 0
-0.000294232 2.20395e-05 0
-0.000115818 2.11122e-05 0
0 0 0
      </DataArray> 
      <DataArray type="Float64" NumberOfComponents="3" Name="Velocity" format="ascii">
0 0 0
0 0 0
0 0 0
0 0 0
0 0 0
0 0 0
0 0 0
0 0 0
0 0 0
0 0 0
0 0 0
0 0 0
0 0 0
0 0 0
0 0 0
0 0 0
0 0 0
0 0 0
0 0 0
0 0 0
0 0 0
0 0 0
0 0 0
0 0 0
0 0 0
0 0 0
0 0 0
0 0 0
0 0 0
0 0 0
0 0 0
0 0 0
0 0 0
0 0 0
0 0 0
0 0 0
      </DataArray> 
      <DataArray type="Float64" NumberOfComponents="3" Name="Acceleration" format="ascii">
0 0 0
0 0 0
0 0 0
0 0 0
0 0 0
0 0 0
0 0 0
0 0 0
0 0 0
0 0 0
0 0 0
0 0 0
0 0 0
0 0 0
0 0 0
0 0 0
0 0 0
0 0 0
0 0 0
0 0 0
0 0 0
0 0 0
0 0 0
0 0 0
0 0 0
0 0 0
0 0 0
0 0 0
0 0 0
0 0 0
0 0 0
0 0 0
0 0 0
0 0 0
0 0 0
0 0 0
      </DataArray> 
    </PointData>
    <CellData>
    </CellData>
  </Piece>
  </UnstructuredGrid>
</VTKFile>
