<?xml version="1.0"?>
<VTKFile type="UnstructuredGrid">
  <UnstructuredGrid>
  <Piece NumberOfPoints="36"  NumberOfCells="69">
    <Points>
      <DataArray type="Float64" NumberOfComponents="3" format="ascii">
0 0 0
-0.000153612 0.999971 0
-0.000383792 1.99997 0
-0.000560261 2.99999 0
-0.000552752 4.00004 0
-0.000214941 5.00011 0
0.000799138 6.00011 0
0.400799 5.9998 0
3.40089 5.99564 0
6.40072 5.99226 0
9.4003 5.99222 0
12.3999 5.99552 0
15.3997 5.99973 0
15.7997 6.00005 0
15.8007 4.99997 0
15.8009 3.99993 0
15.8008 2.99991 0
15.8005 1.99991 0
15.8002 0.999943 0
15.8 0 0
15.4 0 0
15.4002 1 0
15.4005 1.99998 0
15.4008 2.99993 0
15.4009 3.99986 0
15.4007 4.99975 0
12.4008 4.99555 0
9.40068 4.99225 0
6.40029 4.99226 0
3.3999 4.99561 0
0.399773 4.99988 0
0.399451 3.99995 0
0.399444 3 0
0.39962 2.00003 0
0.399851 1.00003 0
0.4 0 0
      </DataArray>
    </Points>
    <Cells>
      <DataArray type="Int32" Name="connectivity" format="ascii">
0 1
1 2
2 3
3 4
4 5
5 6
6 7
7 8
8 9
9 10
10 11
11 12
12 13
13 14
14 15
15 16
16 17
17 18
18 19
19 20
20 21
21 22
22 23
23 24
24 25
25 26
26 27
27 28
28 29
29 30
30 31
31 32
32 33
33 34
34 35
0 35
0 34
1 34
1 33
2 33
2 32
3 32
3 31
4 31
4 30
5 30
5 7
30 7
30 8
29 8
29 9
28 9
28 10
27 10
27 11
26 11
26 12
25 12
25 13
25 14
24 14
24 15
23 15
23 16
22 16
22 17
21 17
21 18
20 18
      </DataArray>
      <DataArray type="Int32" Name="offsets" format="ascii">
2
4
6
8
10
12
14
16
18
20
22
24
26
28
30
32
34
36
38
40
42
44
46
48
50
52
54
56
58
60
62
64
66
68
70
72
74
76
78
80
82
84
86
88
90
92
94
96
98
100
102
104
106
108
110
112
114
116
118
120
122
124
126
128
130
132
134
136
138
      </DataArray>
      <DataArray type="UInt8" Name="types" format="ascii">
4
4
4
4
4
4
4
4
4
4
4
4
4
4
4
4
4
4
4
4
4
4
4
4
4
4
4
4
4
4
4
4
4
4
4
4
4
4
4
4
4
4
4
4
4
4
4
4
4
4
4
4
4
4
4
4
4
4
4
4
4
4
4
4
4
4
4
4
4
      </DataArray>
    </Cells>
    <PointData>
      <DataArray type="Float64" NumberOfComponents="3" Name="Displacement" format="ascii">
0 0 0
-0.000153612 -2.94294e-05 0
-0.000383792 -3.28242e-05 0
-0.000560261 -1.01653e-05 0
-0.000552752 3.85361e-05 0
-0.000214941 0.000113186 0
0.000799138 0.000112672 0
0.000799017 -0.000199608 0
0.000885783 -0.004365 0
0.000719443 -0.00773993 0
0.000300806 -0.00777768 0
-0.00012 -0.00447627 0
-0.000288536 -0.000274764 0
-0.000276967 4.75882e-05 0
0.000682725 -2.50647e-05 0
0.000896757 -7.21452e-05 0
0.000804825 -9.32104e-05 0
0.000537166 -8.81949e-05 0
0.000224068 -5.71111e-05 0
0 0 0
0 0 0
0.000228241 2.87556e-06 0
0.00054134 -2.03261e-05 0
0.000808996 -6.95683e-05 0
0.000900936 -0.000144823 0
0.00068697 -0.000246122 0
0.000808823 -0.00444767 0
0.000676228 -0.00774932 0
0.000288608 -0.00773973 0
-9.67608e-05 -0.00439273 0
-0.000226988 -0.000124334 0
-0.000548606 -4.73503e-05 0
-0.000556098 3.54436e-06 0
-0.000379629 2.84069e-05 0
-0.00014945 2.72316e-05 0
0 0 0
      </DataArray> 
      <DataArray type="Float64" NumberOfComponents="3" Name="Velocity" format="ascii">
0 0 0
0 0 0
0 0 0
0 0 0
0 0 0
0 0 0
0 0 0
0 0 0
0 0 0
0 0 0
0 0 0
0 0 0
0 0 0
0 0 0
0 0 0
0 0 0
0 0 0
0 0 0
0 0 0
0 0 0
0 0 0
0 0 0
0 0 0
0 0 0
0 0 0
0 0 0
0 0 0
0 0 0
0 0 0
0 0 0
0 0 0
0 0 0
0 0 0
0 0 0
0 0 0
0 0 0
      </DataArray> 
      <DataArray type="Float64" NumberOfComponents="3" Name="Acceleration" format="ascii">
0 0 0
0 0 0
0 0 0
0 0 0
0 0 0
0 0 0
0 0 0
0 0 0
0 0 0
0 0 0
0 0 0
0 0 0
0 0 0
0 0 0
0 0 0
0 0 0
0 0 0
0 0 0
0 0 0
0 0 0
0 0 0
0 0 0
0 0 0
0 0 0
0 0 0
0 0 0
0 0 0
0 0 0
0 0 0
0 0 0
0 0 0
0 0 0
0 0 0
0 0 0
0 0 0
0 0 0
      </DataArray> 
    </PointData>
    <CellData>
    </CellData>
  </Piece>
  </UnstructuredGrid>
</VTKFile>
