<?xml version="1.0"?>
<VTKFile type="UnstructuredGrid">
  <UnstructuredGrid>
  <Piece NumberOfPoints="36"  NumberOfCells="69">
    <Points>
      <DataArray type="Float64" NumberOfComponents="3" format="ascii">
0 0 0
-0.00091762 0.999824 0
-0.00228637 1.99981 0
-0.00332143 2.99994 0
-0.00323827 4.00024 0
-0.00115787 5.00068 0
0.00498884 6.00066 0
0.404984 5.99877 0
3.40542 5.97354 0
6.40435 5.95312 0
9.40182 5.9529 0
12.3992 5.97288 0
15.3981 5.99832 0
15.7982 6.00028 0
15.804 4.99985 0
15.8053 3.99957 0
15.8048 2.99944 0
15.8032 1.99947 0
15.8013 0.999657 0
15.8 0 0
15.4 0 0
15.4014 1.00001 0
15.4032 1.99987 0
15.4048 2.99957 0
15.4053 3.99912 0
15.404 4.9985 0
12.4048 4.97306 0
9.40409 4.95308 0
6.40174 4.95313 0
3.39947 4.97339 0
0.398767 4.99924 0
0.396786 3.9997 0
0.396703 3.00001 0
0.397739 2.00017 0
0.399107 1.00016 0
0.4 0 0
      </DataArray>
    </Points>
    <Cells>
      <DataArray type="Int32" Name="connectivity" format="ascii">
0 1
1 2
2 3
3 4
4 5
5 6
6 7
7 8
8 9
9 10
10 11
11 12
12 13
13 14
14 15
15 16
16 17
17 18
18 19
19 20
20 21
21 22
22 23
23 24
24 25
25 26
26 27
27 28
28 29
29 30
30 31
31 32
32 33
33 34
34 35
0 35
0 34
1 34
1 33
2 33
2 32
3 32
3 31
4 31
4 30
5 30
5 7
30 7
30 8
29 8
29 9
28 9
28 10
27 10
27 11
26 11
26 12
25 12
25 13
25 14
24 14
24 15
23 15
23 16
22 16
22 17
21 17
21 18
20 18
      </DataArray>
      <DataArray type="Int32" Name="offsets" format="ascii">
2
4
6
8
10
12
14
16
18
20
22
24
26
28
30
32
34
36
38
40
42
44
46
48
50
52
54
56
58
60
62
64
66
68
70
72
74
76
78
80
82
84
86
88
90
92
94
96
98
100
102
104
106
108
110
112
114
116
118
120
122
124
126
128
130
132
134
136
138
      </DataArray>
      <DataArray type="UInt8" Name="types" format="ascii">
4
4
4
4
4
4
4
4
4
4
4
4
4
4
4
4
4
4
4
4
4
4
4
4
4
4
4
4
4
4
4
4
4
4
4
4
4
4
4
4
4
4
4
4
4
4
4
4
4
4
4
4
4
4
4
4
4
4
4
4
4
4
4
4
4
4
4
4
4
      </DataArray>
    </Cells>
    <PointData>
      <DataArray type="Float64" NumberOfComponents="3" Name="Displacement" format="ascii">
0 0 0
-0.00091762 -0.000175536 0
-0.00228637 -0.000194844 0
-0.00332143 -5.72456e-05 0
-0.00323827 0.000236818 0
-0.00115787 0.00068386 0
0.00498884 0.000664968 0
0.00498434 -0.00123187 0
0.00541768 -0.0264611 0
0.0043516 -0.0468757 0
0.00181543 -0.0470971 0
-0.000788388 -0.0271236 0
-0.00189967 -0.0016834 0
-0.00183402 0.000276402 0
0.0039891 -0.000146742 0
0.00532227 -0.000430635 0
0.00480325 -0.000559092 0
0.00321543 -0.000529685 0
0.00134409 -0.00034283 0
0 0 0
0 0 0
0.00136936 1.453e-05 0
0.00324073 -0.000128684 0
0.00482842 -0.000428316 0
0.00534776 -0.000883376 0
0.00401706 -0.00149505 0
0.00483807 -0.026937 0
0.00408655 -0.0469192 0
0.00174146 -0.0468673 0
-0.000533083 -0.0266133 0
-0.00123319 -0.000761857 0
-0.00321401 -0.00029525 0
-0.00329652 1.30898e-05 0
-0.00226148 0.000165275 0
-0.000892722 0.000161132 0
0 0 0
      </DataArray> 
      <DataArray type="Float64" NumberOfComponents="3" Name="Velocity" format="ascii">
0 0 0
0 0 0
0 0 0
0 0 0
0 0 0
0 0 0
0 0 0
0 0 0
0 0 0
0 0 0
0 0 0
0 0 0
0 0 0
0 0 0
0 0 0
0 0 0
0 0 0
0 0 0
0 0 0
0 0 0
0 0 0
0 0 0
0 0 0
0 0 0
0 0 0
0 0 0
0 0 0
0 0 0
0 0 0
0 0 0
0 0 0
0 0 0
0 0 0
0 0 0
0 0 0
0 0 0
      </DataArray> 
      <DataArray type="Float64" NumberOfComponents="3" Name="Acceleration" format="ascii">
0 0 0
0 0 0
0 0 0
0 0 0
0 0 0
0 0 0
0 0 0
0 0 0
0 0 0
0 0 0
0 0 0
0 0 0
0 0 0
0 0 0
0 0 0
0 0 0
0 0 0
0 0 0
0 0 0
0 0 0
0 0 0
0 0 0
0 0 0
0 0 0
0 0 0
0 0 0
0 0 0
0 0 0
0 0 0
0 0 0
0 0 0
0 0 0
0 0 0
0 0 0
0 0 0
0 0 0
      </DataArray> 
    </PointData>
    <CellData>
    </CellData>
  </Piece>
  </UnstructuredGrid>
</VTKFile>
