<?xml version="1.0"?>
<VTKFile type="UnstructuredGrid">
  <UnstructuredGrid>
  <Piece NumberOfPoints="36"  NumberOfCells="69">
    <Points>
      <DataArray type="Float64" NumberOfComponents="3" format="ascii">
0 0 0
-0.000480624 0.999908 0
-0.00119944 1.9999 0
-0.00174737 2.99997 0
-0.00171543 4.00012 0
-0.000644688 5.00036 0
0.00254784 6.00035 0
0.402547 5.99937 0
3.4028 5.98626 0
6.40226 5.97564 0
9.40095 5.97552 0
12.3996 5.98591 0
15.3991 5.99913 0
15.7991 6.00015 0
15.8021 4.99992 0
15.8028 3.99977 0
15.8025 2.99971 0
15.8017 1.99972 0
15.8007 0.999821 0
15.8 0 0
15.4 0 0
15.4007 1.00001 0
15.4017 1.99993 0
15.4025 2.99978 0
15.4028 3.99954 0
15.4021 4.99922 0
12.4025 4.986 0
9.40213 4.97562 0
6.40091 4.97564 0
3.39971 4.98617 0
0.399317 4.99961 0
0.398297 3.99985 0
0.398266 3.00001 0
0.398814 2.00009 0
0.399532 1.00008 0
0.4 0 0
      </DataArray>
    </Points>
    <Cells>
      <DataArray type="Int32" Name="connectivity" format="ascii">
0 1
1 2
2 3
3 4
4 5
5 6
6 7
7 8
8 9
9 10
10 11
11 12
12 13
13 14
14 15
15 16
16 17
17 18
18 19
19 20
20 21
21 22
22 23
23 24
24 25
25 26
26 27
27 28
28 29
29 30
30 31
31 32
32 33
33 34
34 35
0 35
0 34
1 34
1 33
2 33
2 32
3 32
3 31
4 31
4 30
5 30
5 7
30 7
30 8
29 8
29 9
28 9
28 10
27 10
27 11
26 11
26 12
25 12
25 13
25 14
24 14
24 15
23 15
23 16
22 16
22 17
21 17
21 18
20 18
      </DataArray>
      <DataArray type="Int32" Name="offsets" format="ascii">
2
4
6
8
10
12
14
16
18
20
22
24
26
28
30
32
34
36
38
40
42
44
46
48
50
52
54
56
58
60
62
64
66
68
70
72
74
76
78
80
82
84
86
88
90
92
94
96
98
100
102
104
106
108
110
112
114
116
118
120
122
124
126
128
130
132
134
136
138
      </DataArray>
      <DataArray type="UInt8" Name="types" format="ascii">
4
4
4
4
4
4
4
4
4
4
4
4
4
4
4
4
4
4
4
4
4
4
4
4
4
4
4
4
4
4
4
4
4
4
4
4
4
4
4
4
4
4
4
4
4
4
4
4
4
4
4
4
4
4
4
4
4
4
4
4
4
4
4
4
4
4
4
4
4
      </DataArray>
    </Cells>
    <PointData>
      <DataArray type="Float64" NumberOfComponents="3" Name="Displacement" format="ascii">
0 0 0
-0.000480624 -9.20226e-05 0
-0.00119944 -0.000102433 0
-0.00174737 -3.10457e-05 0
-0.00171543 0.000122027 0
-0.000644688 0.000355846 0
0.00254784 0.00035075 0
0.00254663 -0.000633251 0
0.00279936 -0.0137426 0
0.00226291 -0.0243583 0
0.000945254 -0.0244755 0
-0.000391266 -0.0140903 0
-0.000941652 -0.000868977 0
-0.000906213 0.000147158 0
0.00211643 -7.7771e-05 0
0.00279816 -0.00022567 0
0.00251717 -0.000292156 0
0.00168215 -0.00027658 0
0.000702303 -0.000179061 0
0 0 0
0 0 0
0.000715437 8.41157e-06 0
0.0016953 -6.52055e-05 0
0.00253028 -0.00022049 0
0.00281135 -0.00045717 0
0.00213029 -0.000775559 0
0.00253209 -0.0139974 0
0.00212618 -0.0243849 0
0.000906846 -0.0243561 0
-0.000292828 -0.0138264 0
-0.000683119 -0.000393242 0
-0.00170256 -0.000150893 0
-0.00173433 9.2987e-06 0
-0.00118641 8.79014e-05 0
-0.000467593 8.4862e-05 0
0 0 0
      </DataArray> 
      <DataArray type="Float64" NumberOfComponents="3" Name="Velocity" format="ascii">
0 0 0
0 0 0
0 0 0
0 0 0
0 0 0
0 0 0
0 0 0
0 0 0
0 0 0
0 0 0
0 0 0
0 0 0
0 0 0
0 0 0
0 0 0
0 0 0
0 0 0
0 0 0
0 0 0
0 0 0
0 0 0
0 0 0
0 0 0
0 0 0
0 0 0
0 0 0
0 0 0
0 0 0
0 0 0
0 0 0
0 0 0
0 0 0
0 0 0
0 0 0
0 0 0
0 0 0
      </DataArray> 
      <DataArray type="Float64" NumberOfComponents="3" Name="Acceleration" format="ascii">
0 0 0
0 0 0
0 0 0
0 0 0
0 0 0
0 0 0
0 0 0
0 0 0
0 0 0
0 0 0
0 0 0
0 0 0
0 0 0
0 0 0
0 0 0
0 0 0
0 0 0
0 0 0
0 0 0
0 0 0
0 0 0
0 0 0
0 0 0
0 0 0
0 0 0
0 0 0
0 0 0
0 0 0
0 0 0
0 0 0
0 0 0
0 0 0
0 0 0
0 0 0
0 0 0
0 0 0
      </DataArray> 
    </PointData>
    <CellData>
    </CellData>
  </Piece>
  </UnstructuredGrid>
</VTKFile>
