<?xml version="1.0"?>
<VTKFile type="UnstructuredGrid">
  <UnstructuredGrid>
  <Piece NumberOfPoints="36"  NumberOfCells="69">
    <Points>
      <DataArray type="Float64" NumberOfComponents="3" format="ascii">
0 0 0
-0.000998109 0.999809 0
-0.00248618 1.99979 0
-0.00360976 2.99994 0
-0.00351479 4.00026 0
-0.00124453 5.00074 0
0.00545182 6.00072 0
0.405446 5.99866 0
3.40591 5.97117 0
6.40474 5.94894 0
9.40198 5.9487 0
12.3991 5.97045 0
15.3979 5.99816 0
15.798 6.0003 0
15.8043 4.99984 0
15.8058 3.99953 0
15.8052 2.99939 0
15.8035 1.99942 0
15.8015 0.999627 0
15.8 0 0
15.4 0 0
15.4015 1.00002 0
15.4035 1.99986 0
15.4053 2.99953 0
15.4058 3.99904 0
15.4044 4.99837 0
12.4053 4.97066 0
9.40445 4.94889 0
6.4019 4.94895 0
3.39943 4.97101 0
0.398673 4.99917 0
0.396512 3.99968 0
0.396417 3.00001 0
0.397541 2.00018 0
0.399029 1.00018 0
0.4 0 0
      </DataArray>
    </Points>
    <Cells>
      <DataArray type="Int32" Name="connectivity" format="ascii">
0 1
1 2
2 3
3 4
4 5
5 6
6 7
7 8
8 9
9 10
10 11
11 12
12 13
13 14
14 15
15 16
16 17
17 18
18 19
19 20
20 21
21 22
22 23
23 24
24 25
25 26
26 27
27 28
28 29
29 30
30 31
31 32
32 33
33 34
34 35
0 35
0 34
1 34
1 33
2 33
2 32
3 32
3 31
4 31
4 30
5 30
5 7
30 7
30 8
29 8
29 9
28 9
28 10
27 10
27 11
26 11
26 12
25 12
25 13
25 14
24 14
24 15
23 15
23 16
22 16
22 17
21 17
21 18
20 18
      </DataArray>
      <DataArray type="Int32" Name="offsets" format="ascii">
2
4
6
8
10
12
14
16
18
20
22
24
26
28
30
32
34
36
38
40
42
44
46
48
50
52
54
56
58
60
62
64
66
68
70
72
74
76
78
80
82
84
86
88
90
92
94
96
98
100
102
104
106
108
110
112
114
116
118
120
122
124
126
128
130
132
134
136
138
      </DataArray>
      <DataArray type="UInt8" Name="types" format="ascii">
4
4
4
4
4
4
4
4
4
4
4
4
4
4
4
4
4
4
4
4
4
4
4
4
4
4
4
4
4
4
4
4
4
4
4
4
4
4
4
4
4
4
4
4
4
4
4
4
4
4
4
4
4
4
4
4
4
4
4
4
4
4
4
4
4
4
4
4
4
      </DataArray>
    </Cells>
    <PointData>
      <DataArray type="Float64" NumberOfComponents="3" Name="Displacement" format="ascii">
0 0 0
-0.000998109 -0.000190901 0
-0.00248618 -0.000211784 0
-0.00360976 -6.18481e-05 0
-0.00351479 0.000258378 0
-0.00124453 0.000744755 0
0.00545182 0.000722334 0
0.00544648 -0.00134459 0
0.00590779 -0.0288276 0
0.00473967 -0.0510628 0
0.00197686 -0.0513032 0
-0.000865976 -0.029548 0
-0.00208707 -0.00183602 0
-0.00201608 0.000299715 0
0.00432845 -0.000159254 0
0.00578501 -0.000468354 0
0.00522402 -0.00060839 0
0.00349824 -0.000576475 0
0.00146265 -0.000373096 0
0 0 0
0 0 0
0.00149018 1.5493e-05 0
0.00352581 -0.000140824 0
0.00525143 -0.000467379 0
0.00581279 -0.000963002 0
0.00435917 -0.00162911 0
0.0052632 -0.0293432 0
0.00445055 -0.0511086 0
0.00189628 -0.0510528 0
-0.000574539 -0.0289916 0
-0.00132685 -0.000830942 0
-0.00348845 -0.000322604 0
-0.00358267 1.32904e-05 0
-0.0024591 0.000179255 0
-0.000971023 0.000175085 0
0 0 0
      </DataArray> 
      <DataArray type="Float64" NumberOfComponents="3" Name="Velocity" format="ascii">
0 0 0
0 0 0
0 0 0
0 0 0
0 0 0
0 0 0
0 0 0
0 0 0
0 0 0
0 0 0
0 0 0
0 0 0
0 0 0
0 0 0
0 0 0
0 0 0
0 0 0
0 0 0
0 0 0
0 0 0
0 0 0
0 0 0
0 0 0
0 0 0
0 0 0
0 0 0
0 0 0
0 0 0
0 0 0
0 0 0
0 0 0
0 0 0
0 0 0
0 0 0
0 0 0
0 0 0
      </DataArray> 
      <DataArray type="Float64" NumberOfComponents="3" Name="Acceleration" format="ascii">
0 0 0
0 0 0
0 0 0
0 0 0
0 0 0
0 0 0
0 0 0
0 0 0
0 0 0
0 0 0
0 0 0
0 0 0
0 0 0
0 0 0
0 0 0
0 0 0
0 0 0
0 0 0
0 0 0
0 0 0
0 0 0
0 0 0
0 0 0
0 0 0
0 0 0
0 0 0
0 0 0
0 0 0
0 0 0
0 0 0
0 0 0
0 0 0
0 0 0
0 0 0
0 0 0
0 0 0
      </DataArray> 
    </PointData>
    <CellData>
    </CellData>
  </Piece>
  </UnstructuredGrid>
</VTKFile>
