<?xml version="1.0"?>
<VTKFile type="UnstructuredGrid">
  <UnstructuredGrid>
  <Piece NumberOfPoints="36"  NumberOfCells="69">
    <Points>
      <DataArray type="Float64" NumberOfComponents="3" format="ascii">
0 0 0
-0.000226979 0.999957 0
-0.00056695 1.99995 0
-0.000827262 2.99999 0
-0.000815279 4.00006 0
-0.000314679 5.00017 0
0.0011858 6.00017 0
0.401186 5.9997 0
3.40131 5.99354 0
6.40106 5.98855 0
9.40044 5.98849 0
12.3998 5.99338 0
15.3996 5.99959 0
15.7996 6.00007 0
15.801 4.99996 0
15.8013 3.99989 0
15.8012 2.99986 0
15.8008 1.99987 0
15.8003 0.999916 0
15.8 0 0
15.4 0 0
15.4003 1 0
15.4008 1.99997 0
15.4012 2.9999 0
15.4013 3.99979 0
15.401 4.99964 0
12.4012 4.99342 0
9.401 4.98853 0
6.40043 4.98855 0
3.39986 4.9935 0
0.399667 4.99982 0
0.399191 3.99993 0
0.399179 3.00001 0
0.399439 2.00004 0
0.399779 1.00004 0
0.4 0 0
      </DataArray>
    </Points>
    <Cells>
      <DataArray type="Int32" Name="connectivity" format="ascii">
0 1
1 2
2 3
3 4
4 5
5 6
6 7
7 8
8 9
9 10
10 11
11 12
12 13
13 14
14 15
15 16
16 17
17 18
18 19
19 20
20 21
21 22
22 23
23 24
24 25
25 26
26 27
27 28
28 29
29 30
30 31
31 32
32 33
33 34
34 35
0 35
0 34
1 34
1 33
2 33
2 32
3 32
3 31
4 31
4 30
5 30
5 7
30 7
30 8
29 8
29 9
28 9
28 10
27 10
27 11
26 11
26 12
25 12
25 13
25 14
24 14
24 15
23 15
23 16
22 16
22 17
21 17
21 18
20 18
      </DataArray>
      <DataArray type="Int32" Name="offsets" format="ascii">
2
4
6
8
10
12
14
16
18
20
22
24
26
28
30
32
34
36
38
40
42
44
46
48
50
52
54
56
58
60
62
64
66
68
70
72
74
76
78
80
82
84
86
88
90
92
94
96
98
100
102
104
106
108
110
112
114
116
118
120
122
124
126
128
130
132
134
136
138
      </DataArray>
      <DataArray type="UInt8" Name="types" format="ascii">
4
4
4
4
4
4
4
4
4
4
4
4
4
4
4
4
4
4
4
4
4
4
4
4
4
4
4
4
4
4
4
4
4
4
4
4
4
4
4
4
4
4
4
4
4
4
4
4
4
4
4
4
4
4
4
4
4
4
4
4
4
4
4
4
4
4
4
4
4
      </DataArray>
    </Cells>
    <PointData>
      <DataArray type="Float64" NumberOfComponents="3" Name="Displacement" format="ascii">
0 0 0
-0.000226979 -4.34793e-05 0
-0.00056695 -4.84736e-05 0
-0.000827262 -1.49411e-05 0
-0.000815279 5.70937e-05 0
-0.000314679 0.000167424 0
0.0011858 0.000166298 0
0.00118554 -0.000295858 0
0.00131177 -0.00645874 0
0.00106431 -0.0114515 0
0.000444903 -0.0115072 0
-0.000178974 -0.0066231 0
-0.000430428 -0.00040697 0
-0.000413413 7.01346e-05 0
0.00100673 -3.69678e-05 0
0.00132426 -0.000106597 0
0.00118912 -0.000137784 0
0.000793876 -0.000130385 0
0.000331215 -8.4427e-05 0
0 0 0
0 0 0
0.00033739 4.18739e-06 0
0.000800052 -3.02034e-05 0
0.00119528 -0.000103092 0
0.00133044 -0.000214418 0
0.00101307 -0.000364249 0
0.00119528 -0.00658048 0
0.00100029 -0.0114651 0
0.000426854 -0.011451 0
-0.000141933 -0.0064994 0
-0.000332556 -0.000184161 0
-0.000809164 -7.02538e-05 0
-0.000821109 5.04869e-06 0
-0.000560799 4.18713e-05 0
-0.000220828 4.02018e-05 0
0 0 0
      </DataArray> 
      <DataArray type="Float64" NumberOfComponents="3" Name="Velocity" format="ascii">
0 0 0
0 0 0
0 0 0
0 0 0
0 0 0
0 0 0
0 0 0
0 0 0
0 0 0
0 0 0
0 0 0
0 0 0
0 0 0
0 0 0
0 0 0
0 0 0
0 0 0
0 0 0
0 0 0
0 0 0
0 0 0
0 0 0
0 0 0
0 0 0
0 0 0
0 0 0
0 0 0
0 0 0
0 0 0
0 0 0
0 0 0
0 0 0
0 0 0
0 0 0
0 0 0
0 0 0
      </DataArray> 
      <DataArray type="Float64" NumberOfComponents="3" Name="Acceleration" format="ascii">
0 0 0
0 0 0
0 0 0
0 0 0
0 0 0
0 0 0
0 0 0
0 0 0
0 0 0
0 0 0
0 0 0
0 0 0
0 0 0
0 0 0
0 0 0
0 0 0
0 0 0
0 0 0
0 0 0
0 0 0
0 0 0
0 0 0
0 0 0
0 0 0
0 0 0
0 0 0
0 0 0
0 0 0
0 0 0
0 0 0
0 0 0
0 0 0
0 0 0
0 0 0
0 0 0
0 0 0
      </DataArray> 
    </PointData>
    <CellData>
    </CellData>
  </Piece>
  </UnstructuredGrid>
</VTKFile>
