<?xml version="1.0"?>
<VTKFile type="UnstructuredGrid">
  <UnstructuredGrid>
  <Piece NumberOfPoints="36"  NumberOfCells="69">
    <Points>
      <DataArray type="Float64" NumberOfComponents="3" format="ascii">
0 0 0
-0.000898533 0.999828 0
-0.00223897 1.99981 0
-0.00325298 2.99994 0
-0.00317252 4.00023 0
-0.00113695 5.00067 0
0.00487967 6.00065 0
0.404875 5.99879 0
3.4053 5.9741 0
6.40426 5.95412 0
9.40178 5.9539 0
12.3992 5.97345 0
15.3981 5.99835 0
15.7982 6.00027 0
15.8039 4.99986 0
15.8052 3.99958 0
15.8047 2.99945 0
15.8031 1.99948 0
15.8013 0.999664 0
15.8 0 0
15.4 0 0
15.4013 1.00001 0
15.4032 1.99987 0
15.4047 2.99958 0
15.4052 3.99914 0
15.4039 4.99854 0
12.4047 4.97363 0
9.404 4.95407 0
6.4017 4.95412 0
3.39948 4.97395 0
0.398789 4.99925 0
0.396851 3.99971 0
0.396771 3.00001 0
0.397785 2.00016 0
0.399126 1.00016 0
0.4 0 0
      </DataArray>
    </Points>
    <Cells>
      <DataArray type="Int32" Name="connectivity" format="ascii">
0 1
1 2
2 3
3 4
4 5
5 6
6 7
7 8
8 9
9 10
10 11
11 12
12 13
13 14
14 15
15 16
16 17
17 18
18 19
19 20
20 21
21 22
22 23
23 24
24 25
25 26
26 27
27 28
28 29
29 30
30 31
31 32
32 33
33 34
34 35
0 35
0 34
1 34
1 33
2 33
2 32
3 32
3 31
4 31
4 30
5 30
5 7
30 7
30 8
29 8
29 9
28 9
28 10
27 10
27 11
26 11
26 12
25 12
25 13
25 14
24 14
24 15
23 15
23 16
22 16
22 17
21 17
21 18
20 18
      </DataArray>
      <DataArray type="Int32" Name="offsets" format="ascii">
2
4
6
8
10
12
14
16
18
20
22
24
26
28
30
32
34
36
38
40
42
44
46
48
50
52
54
56
58
60
62
64
66
68
70
72
74
76
78
80
82
84
86
88
90
92
94
96
98
100
102
104
106
108
110
112
114
116
118
120
122
124
126
128
130
132
134
136
138
      </DataArray>
      <DataArray type="UInt8" Name="types" format="ascii">
4
4
4
4
4
4
4
4
4
4
4
4
4
4
4
4
4
4
4
4
4
4
4
4
4
4
4
4
4
4
4
4
4
4
4
4
4
4
4
4
4
4
4
4
4
4
4
4
4
4
4
4
4
4
4
4
4
4
4
4
4
4
4
4
4
4
4
4
4
      </DataArray>
    </Cells>
    <PointData>
      <DataArray type="Float64" NumberOfComponents="3" Name="Displacement" format="ascii">
0 0 0
-0.000898533 -0.000171892 0
-0.00223897 -0.000190823 0
-0.00325298 -5.61438e-05 0
-0.00317252 0.000231724 0
-0.00113695 0.000669441 0
0.00487967 0.000651341 0
0.00487536 -0.00120525 0
0.00530182 -0.025901 0
0.00425973 -0.0458846 0
0.0017772 -0.0461015 0
-0.000770195 -0.0265498 0
-0.00185573 -0.00164733 0
-0.00179136 0.00027085 0
0.00390837 -0.000143766 0
0.00521244 -0.000421688 0
0.00470345 -0.000547408 0
0.00314838 -0.000518598 0
0.00131599 -0.000335657 0
0 0 0
0 0 0
0.00134073 1.42941e-05 0
0.00317315 -0.000125826 0
0.00472809 -0.000419089 0
0.00523738 -0.000864546 0
0.00393568 -0.00146333 0
0.00473728 -0.0263675 0
0.00400037 -0.0459275 0
0.0017048 -0.0458765 0
-0.000523123 -0.0260504 0
-0.00121062 -0.00074553 0
-0.00314875 -0.000288798 0
-0.00322859 1.30193e-05 0
-0.0022146 0.000161948 0
-0.000874154 0.000157819 0
0 0 0
      </DataArray> 
      <DataArray type="Float64" NumberOfComponents="3" Name="Velocity" format="ascii">
0 0 0
0 0 0
0 0 0
0 0 0
0 0 0
0 0 0
0 0 0
0 0 0
0 0 0
0 0 0
0 0 0
0 0 0
0 0 0
0 0 0
0 0 0
0 0 0
0 0 0
0 0 0
0 0 0
0 0 0
0 0 0
0 0 0
0 0 0
0 0 0
0 0 0
0 0 0
0 0 0
0 0 0
0 0 0
0 0 0
0 0 0
0 0 0
0 0 0
0 0 0
0 0 0
0 0 0
      </DataArray> 
      <DataArray type="Float64" NumberOfComponents="3" Name="Acceleration" format="ascii">
0 0 0
0 0 0
0 0 0
0 0 0
0 0 0
0 0 0
0 0 0
0 0 0
0 0 0
0 0 0
0 0 0
0 0 0
0 0 0
0 0 0
0 0 0
0 0 0
0 0 0
0 0 0
0 0 0
0 0 0
0 0 0
0 0 0
0 0 0
0 0 0
0 0 0
0 0 0
0 0 0
0 0 0
0 0 0
0 0 0
0 0 0
0 0 0
0 0 0
0 0 0
0 0 0
0 0 0
      </DataArray> 
    </PointData>
    <CellData>
    </CellData>
  </Piece>
  </UnstructuredGrid>
</VTKFile>
