<?xml version="1.0"?>
<VTKFile type="UnstructuredGrid">
  <UnstructuredGrid>
  <Piece NumberOfPoints="36"  NumberOfCells="69">
    <Points>
      <DataArray type="Float64" NumberOfComponents="3" format="ascii">
0 0 0
-0.00100657 0.999807 0
-0.00250718 1.99979 0
-0.00364005 2.99994 0
-0.00354379 4.00026 0
-0.00125349 5.00075 0
0.00550075 6.00073 0
0.405495 5.99864 0
3.40596 5.97092 0
6.40478 5.9485 0
9.40199 5.94825 0
12.3991 5.9702 0
15.3979 5.99815 0
15.798 6.0003 0
15.8044 4.99984 0
15.8058 3.99953 0
15.8053 2.99939 0
15.8035 1.99942 0
15.8015 0.999624 0
15.8 0 0
15.4 0 0
15.4015 1.00002 0
15.4036 1.99986 0
15.4053 2.99953 0
15.4059 3.99903 0
15.4044 4.99836 0
12.4053 4.9704 0
9.40449 4.94845 0
6.40191 4.94851 0
3.39942 4.97076 0
0.398663 4.99916 0
0.396483 3.99967 0
0.396387 3.00001 0
0.39752 2.00018 0
0.399021 1.00018 0
0.4 0 0
      </DataArray>
    </Points>
    <Cells>
      <DataArray type="Int32" Name="connectivity" format="ascii">
0 1
1 2
2 3
3 4
4 5
5 6
6 7
7 8
8 9
9 10
10 11
11 12
12 13
13 14
14 15
15 16
16 17
17 18
18 19
19 20
20 21
21 22
22 23
23 24
24 25
25 26
26 27
27 28
28 29
29 30
30 31
31 32
32 33
33 34
34 35
0 35
0 34
1 34
1 33
2 33
2 32
3 32
3 31
4 31
4 30
5 30
5 7
30 7
30 8
29 8
29 9
28 9
28 10
27 10
27 11
26 11
26 12
25 12
25 13
25 14
24 14
24 15
23 15
23 16
22 16
22 17
21 17
21 18
20 18
      </DataArray>
      <DataArray type="Int32" Name="offsets" format="ascii">
2
4
6
8
10
12
14
16
18
20
22
24
26
28
30
32
34
36
38
40
42
44
46
48
50
52
54
56
58
60
62
64
66
68
70
72
74
76
78
80
82
84
86
88
90
92
94
96
98
100
102
104
106
108
110
112
114
116
118
120
122
124
126
128
130
132
134
136
138
      </DataArray>
      <DataArray type="UInt8" Name="types" format="ascii">
4
4
4
4
4
4
4
4
4
4
4
4
4
4
4
4
4
4
4
4
4
4
4
4
4
4
4
4
4
4
4
4
4
4
4
4
4
4
4
4
4
4
4
4
4
4
4
4
4
4
4
4
4
4
4
4
4
4
4
4
4
4
4
4
4
4
4
4
4
      </DataArray>
    </Cells>
    <PointData>
      <DataArray type="Float64" NumberOfComponents="3" Name="Displacement" format="ascii">
0 0 0
-0.00100657 -0.000192516 0
-0.00250718 -0.000213563 0
-0.00364005 -6.23279e-05 0
-0.00354379 0.000260652 0
-0.00125349 0.000751166 0
0.00550075 0.000728356 0
0.00549531 -0.00135648 0
0.00595947 -0.0290769 0
0.00478053 -0.0515038 0
0.00199386 -0.0517461 0
-0.000874216 -0.0298033 0
-0.00210698 -0.00185211 0
-0.00203542 0.000302157 0
0.00436403 -0.000160566 0
0.00583362 -0.000472319 0
0.00526826 -0.000613576 0
0.00352798 -0.000581397 0
0.00147512 -0.00037628 0
0 0 0
0 0 0
0.00150289 1.55913e-05 0
0.00355579 -0.000142108 0
0.0052959 -0.0004715 0
0.00586165 -0.000971395 0
0.00439504 -0.00164323 0
0.00530791 -0.0295966 0
0.00448888 -0.0515499 0
0.00191258 -0.0514936 0
-0.000578846 -0.0292421 0
-0.00133656 -0.000838228 0
-0.00351724 -0.000325495 0
-0.00361272 1.33024e-05 0
-0.00247987 0.000180719 0
-0.000979256 0.00017655 0
0 0 0
      </DataArray> 
      <DataArray type="Float64" NumberOfComponents="3" Name="Velocity" format="ascii">
0 0 0
0 0 0
0 0 0
0 0 0
0 0 0
0 0 0
0 0 0
0 0 0
0 0 0
0 0 0
0 0 0
0 0 0
0 0 0
0 0 0
0 0 0
0 0 0
0 0 0
0 0 0
0 0 0
0 0 0
0 0 0
0 0 0
0 0 0
0 0 0
0 0 0
0 0 0
0 0 0
0 0 0
0 0 0
0 0 0
0 0 0
0 0 0
0 0 0
0 0 0
0 0 0
0 0 0
      </DataArray> 
      <DataArray type="Float64" NumberOfComponents="3" Name="Acceleration" format="ascii">
0 0 0
0 0 0
0 0 0
0 0 0
0 0 0
0 0 0
0 0 0
0 0 0
0 0 0
0 0 0
0 0 0
0 0 0
0 0 0
0 0 0
0 0 0
0 0 0
0 0 0
0 0 0
0 0 0
0 0 0
0 0 0
0 0 0
0 0 0
0 0 0
0 0 0
0 0 0
0 0 0
0 0 0
0 0 0
0 0 0
0 0 0
0 0 0
0 0 0
0 0 0
0 0 0
0 0 0
      </DataArray> 
    </PointData>
    <CellData>
    </CellData>
  </Piece>
  </UnstructuredGrid>
</VTKFile>
