<?xml version="1.0"?>
<VTKFile type="UnstructuredGrid">
  <UnstructuredGrid>
  <Piece NumberOfPoints="36"  NumberOfCells="69">
    <Points>
      <DataArray type="Float64" NumberOfComponents="3" format="ascii">
0 0 0
-0.000609008 0.999883 0
-0.00151913 1.99987 0
-0.0022113 2.99996 0
-0.00216655 4.00016 0
-0.000802826 5.00045 0
0.00325242 6.00044 0
0.40325 5.99919 0
3.40356 5.98254 0
6.40287 5.96906 0
9.4012 5.96892 0
12.3995 5.9821 0
15.3988 5.99889 0
15.7988 6.00019 0
15.8027 4.9999 0
15.8035 3.99971 0
15.8032 2.99963 0
15.8021 1.99965 0
15.8009 0.999773 0
15.8 0 0
15.4 0 0
15.4009 1.00001 0
15.4021 1.99992 0
15.4032 2.99972 0
15.4036 3.99942 0
15.4027 4.99901 0
12.4032 4.98222 0
9.4027 4.96903 0
6.40115 4.96907 0
3.39963 4.98244 0
0.399148 4.9995 0
0.39785 3.99981 0
0.397805 3.00001 0
0.398497 2.00011 0
0.399408 1.00011 0
0.4 0 0
      </DataArray>
    </Points>
    <Cells>
      <DataArray type="Int32" Name="connectivity" format="ascii">
0 1
1 2
2 3
3 4
4 5
5 6
6 7
7 8
8 9
9 10
10 11
11 12
12 13
13 14
14 15
15 16
16 17
17 18
18 19
19 20
20 21
21 22
22 23
23 24
24 25
25 26
26 27
27 28
28 29
29 30
30 31
31 32
32 33
33 34
34 35
0 35
0 34
1 34
1 33
2 33
2 32
3 32
3 31
4 31
4 30
5 30
5 7
30 7
30 8
29 8
29 9
28 9
28 10
27 10
27 11
26 11
26 12
25 12
25 13
25 14
24 14
24 15
23 15
23 16
22 16
22 17
21 17
21 18
20 18
      </DataArray>
      <DataArray type="Int32" Name="offsets" format="ascii">
2
4
6
8
10
12
14
16
18
20
22
24
26
28
30
32
34
36
38
40
42
44
46
48
50
52
54
56
58
60
62
64
66
68
70
72
74
76
78
80
82
84
86
88
90
92
94
96
98
100
102
104
106
108
110
112
114
116
118
120
122
124
126
128
130
132
134
136
138
      </DataArray>
      <DataArray type="UInt8" Name="types" format="ascii">
4
4
4
4
4
4
4
4
4
4
4
4
4
4
4
4
4
4
4
4
4
4
4
4
4
4
4
4
4
4
4
4
4
4
4
4
4
4
4
4
4
4
4
4
4
4
4
4
4
4
4
4
4
4
4
4
4
4
4
4
4
4
4
4
4
4
4
4
4
      </DataArray>
    </Cells>
    <PointData>
      <DataArray type="Float64" NumberOfComponents="3" Name="Displacement" format="ascii">
0 0 0
-0.000609008 -0.000116574 0
-0.00151913 -0.000129657 0
-0.0022113 -3.89504e-05 0
-0.00216655 0.000155361 0
-0.000802826 0.000451762 0
0.00325242 0.00044354 0
0.00325047 -0.000806811 0
0.00356122 -0.0174567 0
0.0028734 -0.0309363 0
0.00119982 -0.0310844 0
-0.000503765 -0.017897 0
-0.00121283 -0.00110579 0
-0.00116831 0.000185589 0
0.00267182 -9.8212e-05 0
0.00354175 -0.000285913 0
0.00318906 -0.000370452 0
0.00213223 -0.000350778 0
0.000890526 -0.000227078 0
0 0 0
0 0 0
0.000907207 1.03631e-05 0
0.00214893 -8.34336e-05 0
0.0032057 -0.000280809 0
0.00355852 -0.000581326 0
0.00268966 -0.000985495 0
0.00320919 -0.0177774 0
0.00269937 -0.0309686 0
0.00115103 -0.0309327 0
-0.000366036 -0.0175614 0
-0.000851897 -0.00050042 0
-0.0021503 -0.000192583 0
-0.00219478 1.08808e-05 0
-0.00150262 0.000110889 0
-0.000592494 0.000107359 0
0 0 0
      </DataArray> 
      <DataArray type="Float64" NumberOfComponents="3" Name="Velocity" format="ascii">
0 0 0
0 0 0
0 0 0
0 0 0
0 0 0
0 0 0
0 0 0
0 0 0
0 0 0
0 0 0
0 0 0
0 0 0
0 0 0
0 0 0
0 0 0
0 0 0
0 0 0
0 0 0
0 0 0
0 0 0
0 0 0
0 0 0
0 0 0
0 0 0
0 0 0
0 0 0
0 0 0
0 0 0
0 0 0
0 0 0
0 0 0
0 0 0
0 0 0
0 0 0
0 0 0
0 0 0
      </DataArray> 
      <DataArray type="Float64" NumberOfComponents="3" Name="Acceleration" format="ascii">
0 0 0
0 0 0
0 0 0
0 0 0
0 0 0
0 0 0
0 0 0
0 0 0
0 0 0
0 0 0
0 0 0
0 0 0
0 0 0
0 0 0
0 0 0
0 0 0
0 0 0
0 0 0
0 0 0
0 0 0
0 0 0
0 0 0
0 0 0
0 0 0
0 0 0
0 0 0
0 0 0
0 0 0
0 0 0
0 0 0
0 0 0
0 0 0
0 0 0
0 0 0
0 0 0
0 0 0
      </DataArray> 
    </PointData>
    <CellData>
    </CellData>
  </Piece>
  </UnstructuredGrid>
</VTKFile>
