<?xml version="1.0"?>
<VTKFile type="UnstructuredGrid">
  <UnstructuredGrid>
  <Piece NumberOfPoints="36"  NumberOfCells="69">
    <Points>
      <DataArray type="Float64" NumberOfComponents="3" format="ascii">
0 0 0
-0.000209728 0.99996 0
-0.000523891 1.99996 0
-0.000764513 2.99999 0
-0.000753635 4.00005 0
-0.000291397 5.00015 0
0.00109459 6.00015 0
0.401094 5.99973 0
3.40121 5.99403 0
6.40098 5.98942 0
9.40041 5.98937 0
12.3998 5.99388 0
15.3996 5.99962 0
15.7996 6.00006 0
15.8009 4.99997 0
15.8012 3.9999 0
15.8011 2.99987 0
15.8007 1.99988 0
15.8003 0.999922 0
15.8 0 0
15.4 0 0
15.4003 1 0
15.4007 1.99997 0
15.4011 2.9999 0
15.4012 3.9998 0
15.4009 4.99966 0
12.4011 4.99392 0
9.40092 4.98941 0
6.40039 4.98942 0
3.39987 4.994 0
0.399692 4.99983 0
0.399252 3.99994 0
0.399241 3 0
0.399482 2.00004 0
0.399796 1.00004 0
0.4 0 0
      </DataArray>
    </Points>
    <Cells>
      <DataArray type="Int32" Name="connectivity" format="ascii">
0 1
1 2
2 3
3 4
4 5
5 6
6 7
7 8
8 9
9 10
10 11
11 12
12 13
13 14
14 15
15 16
16 17
17 18
18 19
19 20
20 21
21 22
22 23
23 24
24 25
25 26
26 27
27 28
28 29
29 30
30 31
31 32
32 33
33 34
34 35
0 35
0 34
1 34
1 33
2 33
2 32
3 32
3 31
4 31
4 30
5 30
5 7
30 7
30 8
29 8
29 9
28 9
28 10
27 10
27 11
26 11
26 12
25 12
25 13
25 14
24 14
24 15
23 15
23 16
22 16
22 17
21 17
21 18
20 18
      </DataArray>
      <DataArray type="Int32" Name="offsets" format="ascii">
2
4
6
8
10
12
14
16
18
20
22
24
26
28
30
32
34
36
38
40
42
44
46
48
50
52
54
56
58
60
62
64
66
68
70
72
74
76
78
80
82
84
86
88
90
92
94
96
98
100
102
104
106
108
110
112
114
116
118
120
122
124
126
128
130
132
134
136
138
      </DataArray>
      <DataArray type="UInt8" Name="types" format="ascii">
4
4
4
4
4
4
4
4
4
4
4
4
4
4
4
4
4
4
4
4
4
4
4
4
4
4
4
4
4
4
4
4
4
4
4
4
4
4
4
4
4
4
4
4
4
4
4
4
4
4
4
4
4
4
4
4
4
4
4
4
4
4
4
4
4
4
4
4
4
      </DataArray>
    </Cells>
    <PointData>
      <DataArray type="Float64" NumberOfComponents="3" Name="Displacement" format="ascii">
0 0 0
-0.000209728 -4.01759e-05 0
-0.000523891 -4.47954e-05 0
-0.000764513 -1.38228e-05 0
-0.000753635 5.27212e-05 0
-0.000291397 0.00015466 0
0.00109459 0.000153699 0
0.00109436 -0.000273172 0
0.00121144 -0.00596589 0
0.000983143 -0.0105779 0
0.000410995 -0.0106293 0
-0.00016501 -0.00611777 0
-0.000396825 -0.000375826 0
-0.000381085 6.48437e-05 0
0.000930668 -3.41729e-05 0
0.00122378 -9.84965e-05 0
0.00109876 -0.0001273 0
0.000733504 -0.00012046 0
0.000306013 -7.80017e-05 0
0 0 0
0 0 0
0.000311717 3.88253e-06 0
0.000739209 -2.78709e-05 0
0.00110446 -9.5192e-05 0
0.0012295 -0.000198028 0
0.000936507 -0.000336439 0
0.0011044 -0.00607848 0
0.000924029 -0.0105905 0
0.000394324 -0.0105775 0
-0.000131372 -0.00600353 0
-0.000307899 -0.000170067 0
-0.000747982 -6.48514e-05 0
-0.000758829 4.70598e-06 0
-0.000518208 3.87113e-05 0
-0.000204044 3.71541e-05 0
0 0 0
      </DataArray> 
      <DataArray type="Float64" NumberOfComponents="3" Name="Velocity" format="ascii">
0 0 0
0 0 0
0 0 0
0 0 0
0 0 0
0 0 0
0 0 0
0 0 0
0 0 0
0 0 0
0 0 0
0 0 0
0 0 0
0 0 0
0 0 0
0 0 0
0 0 0
0 0 0
0 0 0
0 0 0
0 0 0
0 0 0
0 0 0
0 0 0
0 0 0
0 0 0
0 0 0
0 0 0
0 0 0
0 0 0
0 0 0
0 0 0
0 0 0
0 0 0
0 0 0
0 0 0
      </DataArray> 
      <DataArray type="Float64" NumberOfComponents="3" Name="Acceleration" format="ascii">
0 0 0
0 0 0
0 0 0
0 0 0
0 0 0
0 0 0
0 0 0
0 0 0
0 0 0
0 0 0
0 0 0
0 0 0
0 0 0
0 0 0
0 0 0
0 0 0
0 0 0
0 0 0
0 0 0
0 0 0
0 0 0
0 0 0
0 0 0
0 0 0
0 0 0
0 0 0
0 0 0
0 0 0
0 0 0
0 0 0
0 0 0
0 0 0
0 0 0
0 0 0
0 0 0
0 0 0
      </DataArray> 
    </PointData>
    <CellData>
    </CellData>
  </Piece>
  </UnstructuredGrid>
</VTKFile>
