<?xml version="1.0"?>
<VTKFile type="UnstructuredGrid">
  <UnstructuredGrid>
  <Piece NumberOfPoints="36"  NumberOfCells="69">
    <Points>
      <DataArray type="Float64" NumberOfComponents="3" format="ascii">
0 0 0
-0.000188154 0.999964 0
-0.000470035 1.99996 0
-0.000686013 2.99999 0
-0.00067647 4.00005 0
-0.000262135 5.00014 0
0.000980777 6.00014 0
0.400981 5.99976 0
3.40109 5.99465 0
6.40088 5.99051 0
9.40037 5.99047 0
12.3999 5.99451 0
15.3996 5.99966 0
15.7997 6.00006 0
15.8008 4.99997 0
15.8011 3.99991 0
15.801 2.99989 0
15.8007 1.99989 0
15.8003 0.99993 0
15.8 0 0
15.4 0 0
15.4003 1 0
15.4007 1.99998 0
15.401 2.99991 0
15.4011 3.99982 0
15.4008 4.9997 0
12.401 4.99455 0
9.40083 4.9905 0
6.40035 4.99051 0
3.39988 4.99462 0
0.399723 4.99985 0
0.399329 3.99994 0
0.399319 3 0
0.399535 2.00003 0
0.399817 1.00003 0
0.4 0 0
      </DataArray>
    </Points>
    <Cells>
      <DataArray type="Int32" Name="connectivity" format="ascii">
0 1
1 2
2 3
3 4
4 5
5 6
6 7
7 8
8 9
9 10
10 11
11 12
12 13
13 14
14 15
15 16
16 17
17 18
18 19
19 20
20 21
21 22
22 23
23 24
24 25
25 26
26 27
27 28
28 29
29 30
30 31
31 32
32 33
33 34
34 35
0 35
0 34
1 34
1 33
2 33
2 32
3 32
3 31
4 31
4 30
5 30
5 7
30 7
30 8
29 8
29 9
28 9
28 10
27 10
27 11
26 11
26 12
25 12
25 13
25 14
24 14
24 15
23 15
23 16
22 16
22 17
21 17
21 18
20 18
      </DataArray>
      <DataArray type="Int32" Name="offsets" format="ascii">
2
4
6
8
10
12
14
16
18
20
22
24
26
28
30
32
34
36
38
40
42
44
46
48
50
52
54
56
58
60
62
64
66
68
70
72
74
76
78
80
82
84
86
88
90
92
94
96
98
100
102
104
106
108
110
112
114
116
118
120
122
124
126
128
130
132
134
136
138
      </DataArray>
      <DataArray type="UInt8" Name="types" format="ascii">
4
4
4
4
4
4
4
4
4
4
4
4
4
4
4
4
4
4
4
4
4
4
4
4
4
4
4
4
4
4
4
4
4
4
4
4
4
4
4
4
4
4
4
4
4
4
4
4
4
4
4
4
4
4
4
4
4
4
4
4
4
4
4
4
4
4
4
4
4
      </DataArray>
    </Cells>
    <PointData>
      <DataArray type="Float64" NumberOfComponents="3" Name="Displacement" format="ascii">
0 0 0
-0.000188154 -3.60446e-05 0
-0.000470035 -4.01942e-05 0
-0.000686013 -1.24202e-05 0
-0.00067647 4.72607e-05 0
-0.000262135 0.000138707 0
0.000980777 0.000137934 0
0.000980593 -0.000244848 0
0.0010861 -0.00535001 0
0.000881705 -0.00948612 0
0.000368613 -0.00953232 0
-0.000147631 -0.00548628 0
-0.000355008 -0.000336928 0
-0.000340869 5.82179e-05 0
0.000835437 -3.06742e-05 0
0.00109809 -8.83658e-05 0
0.000985759 -0.000114191 0
0.000658013 -0.000108053 0
0.000274503 -6.99683e-05 0
0 0 0
0 0 0
0.000279618 3.49816e-06 0
0.000663129 -2.49626e-05 0
0.000990869 -8.53273e-05 0
0.00110321 -0.000177554 0
0.00084066 -0.00030169 0
0.000990754 -0.00545111 0
0.00082871 -0.00949751 0
0.000353662 -0.00948582 0
-0.000118112 -0.00538385 0
-0.00027692 -0.000152465 0
-0.000671396 -5.811e-05 0
-0.000680913 4.26786e-06 0
-0.000464936 3.47543e-05 0
-0.000183055 3.33409e-05 0
0 0 0
      </DataArray> 
      <DataArray type="Float64" NumberOfComponents="3" Name="Velocity" format="ascii">
0 0 0
0 0 0
0 0 0
0 0 0
0 0 0
0 0 0
0 0 0
0 0 0
0 0 0
0 0 0
0 0 0
0 0 0
0 0 0
0 0 0
0 0 0
0 0 0
0 0 0
0 0 0
0 0 0
0 0 0
0 0 0
0 0 0
0 0 0
0 0 0
0 0 0
0 0 0
0 0 0
0 0 0
0 0 0
0 0 0
0 0 0
0 0 0
0 0 0
0 0 0
0 0 0
0 0 0
      </DataArray> 
      <DataArray type="Float64" NumberOfComponents="3" Name="Acceleration" format="ascii">
0 0 0
0 0 0
0 0 0
0 0 0
0 0 0
0 0 0
0 0 0
0 0 0
0 0 0
0 0 0
0 0 0
0 0 0
0 0 0
0 0 0
0 0 0
0 0 0
0 0 0
0 0 0
0 0 0
0 0 0
0 0 0
0 0 0
0 0 0
0 0 0
0 0 0
0 0 0
0 0 0
0 0 0
0 0 0
0 0 0
0 0 0
0 0 0
0 0 0
0 0 0
0 0 0
0 0 0
      </DataArray> 
    </PointData>
    <CellData>
    </CellData>
  </Piece>
  </UnstructuredGrid>
</VTKFile>
