<?xml version="1.0"?>
<VTKFile type="UnstructuredGrid">
  <UnstructuredGrid>
  <Piece NumberOfPoints="36"  NumberOfCells="69">
    <Points>
      <DataArray type="Float64" NumberOfComponents="3" format="ascii">
0 0 0
-0.000849714 0.999837 0
-0.00211771 1.99982 0
-0.00307778 2.99995 0
-0.00300402 4.00022 0
-0.00108283 5.00063 0
0.00460151 6.00062 0
0.404598 5.99886 0
3.40501 5.97553 0
6.40403 5.95665 0
9.40168 5.95644 0
12.3993 5.97492 0
15.3983 5.99844 0
15.7983 6.00026 0
15.8037 4.99986 0
15.8049 3.9996 0
15.8044 2.99948 0
15.803 1.99951 0
15.8012 0.999683 0
15.8 0 0
15.4 0 0
15.4013 1.00001 0
15.403 1.99988 0
15.4045 2.9996 0
15.405 3.99918 0
15.4037 4.99862 0
12.4045 4.97509 0
9.40378 4.95661 0
6.40161 4.95665 0
3.3995 4.97539 0
0.398848 4.9993 0
0.397018 3.99973 0
0.396945 3.00001 0
0.397905 2.00015 0
0.399173 1.00015 0
0.4 0 0
      </DataArray>
    </Points>
    <Cells>
      <DataArray type="Int32" Name="connectivity" format="ascii">
0 1
1 2
2 3
3 4
4 5
5 6
6 7
7 8
8 9
9 10
10 11
11 12
12 13
13 14
14 15
15 16
16 17
17 18
18 19
19 20
20 21
21 22
22 23
23 24
24 25
25 26
26 27
27 28
28 29
29 30
30 31
31 32
32 33
33 34
34 35
0 35
0 34
1 34
1 33
2 33
2 32
3 32
3 31
4 31
4 30
5 30
5 7
30 7
30 8
29 8
29 9
28 9
28 10
27 10
27 11
26 11
26 12
25 12
25 13
25 14
24 14
24 15
23 15
23 16
22 16
22 17
21 17
21 18
20 18
      </DataArray>
      <DataArray type="Int32" Name="offsets" format="ascii">
2
4
6
8
10
12
14
16
18
20
22
24
26
28
30
32
34
36
38
40
42
44
46
48
50
52
54
56
58
60
62
64
66
68
70
72
74
76
78
80
82
84
86
88
90
92
94
96
98
100
102
104
106
108
110
112
114
116
118
120
122
124
126
128
130
132
134
136
138
      </DataArray>
      <DataArray type="UInt8" Name="types" format="ascii">
4
4
4
4
4
4
4
4
4
4
4
4
4
4
4
4
4
4
4
4
4
4
4
4
4
4
4
4
4
4
4
4
4
4
4
4
4
4
4
4
4
4
4
4
4
4
4
4
4
4
4
4
4
4
4
4
4
4
4
4
4
4
4
4
4
4
4
4
4
      </DataArray>
    </Cells>
    <PointData>
      <DataArray type="Float64" NumberOfComponents="3" Name="Displacement" format="ascii">
0 0 0
-0.000849714 -0.00016257 0
-0.00211771 -0.000180532 0
-0.00307778 -5.33075e-05 0
-0.00300402 0.000218731 0
-0.00108283 0.000632602 0
0.00460151 0.000616446 0
0.00459767 -0.00113738 0
0.00500612 -0.0244704 0
0.00402503 -0.0433529 0
0.00167952 -0.0435582 0
-0.000724019 -0.0250841 0
-0.00174424 -0.00155528 0
-0.00168316 0.000256612 0
0.00370143 -0.000136139 0
0.00493134 -0.000398803 0
0.00444818 -0.000517533 0
0.00297692 -0.000490252 0
0.00124415 -0.00031732 0
0 0 0
0 0 0
0.00126753 1.36774e-05 0
0.00300033 -0.000118552 0
0.00447147 -0.000395552 0
0.0049549 -0.000816473 0
0.0037271 -0.00138233 0
0.0044795 -0.0249127 0
0.00378018 -0.0433942 0
0.00161112 -0.0433457 0
-0.000497423 -0.0246125 0
-0.00115229 -0.000703865 0
-0.0029815 -0.000272359 0
-0.00305472 1.27989e-05 0
-0.00209466 0.000153415 0
-0.000826662 0.000149337 0
0 0 0
      </DataArray> 
      <DataArray type="Float64" NumberOfComponents="3" Name="Velocity" format="ascii">
0 0 0
0 0 0
0 0 0
0 0 0
0 0 0
0 0 0
0 0 0
0 0 0
0 0 0
0 0 0
0 0 0
0 0 0
0 0 0
0 0 0
0 0 0
0 0 0
0 0 0
0 0 0
0 0 0
0 0 0
0 0 0
0 0 0
0 0 0
0 0 0
0 0 0
0 0 0
0 0 0
0 0 0
0 0 0
0 0 0
0 0 0
0 0 0
0 0 0
0 0 0
0 0 0
0 0 0
      </DataArray> 
      <DataArray type="Float64" NumberOfComponents="3" Name="Acceleration" format="ascii">
0 0 0
0 0 0
0 0 0
0 0 0
0 0 0
0 0 0
0 0 0
0 0 0
0 0 0
0 0 0
0 0 0
0 0 0
0 0 0
0 0 0
0 0 0
0 0 0
0 0 0
0 0 0
0 0 0
0 0 0
0 0 0
0 0 0
0 0 0
0 0 0
0 0 0
0 0 0
0 0 0
0 0 0
0 0 0
0 0 0
0 0 0
0 0 0
0 0 0
0 0 0
0 0 0
0 0 0
      </DataArray> 
    </PointData>
    <CellData>
    </CellData>
  </Piece>
  </UnstructuredGrid>
</VTKFile>
