<?xml version="1.0"?>
<VTKFile type="UnstructuredGrid">
  <UnstructuredGrid>
  <Piece NumberOfPoints="36"  NumberOfCells="69">
    <Points>
      <DataArray type="Float64" NumberOfComponents="3" format="ascii">
0 0 0
-0.000783822 0.99985 0
-0.00195396 1.99983 0
-0.00284102 2.99995 0
-0.00277585 4.0002 0
-0.00100834 5.00058 0
0.00422852 6.00057 0
0.404225 5.99895 0
3.40461 5.97746 0
6.40371 5.96006 0
9.40155 5.95987 0
12.3993 5.97689 0
15.3984 5.99857 0
15.7985 6.00024 0
15.8034 4.99987 0
15.8046 3.99963 0
15.8041 2.99952 0
15.8027 1.99955 0
15.8011 0.999707 0
15.8 0 0
15.4 0 0
15.4012 1.00001 0
15.4028 1.99989 0
15.4041 2.99964 0
15.4046 3.99925 0
15.4034 4.99873 0
12.4041 4.97705 0
9.40348 4.96002 0
6.40148 4.96006 0
3.39954 4.97732 0
0.398928 4.99935 0
0.397245 3.99975 0
0.39718 3.00001 0
0.398067 2.00014 0
0.399237 1.00014 0
0.4 0 0
      </DataArray>
    </Points>
    <Cells>
      <DataArray type="Int32" Name="connectivity" format="ascii">
0 1
1 2
2 3
3 4
4 5
5 6
6 7
7 8
8 9
9 10
10 11
11 12
12 13
13 14
14 15
15 16
16 17
17 18
18 19
19 20
20 21
21 22
22 23
23 24
24 25
25 26
26 27
27 28
28 29
29 30
30 31
31 32
32 33
33 34
34 35
0 35
0 34
1 34
1 33
2 33
2 32
3 32
3 31
4 31
4 30
5 30
5 7
30 7
30 8
29 8
29 9
28 9
28 10
27 10
27 11
26 11
26 12
25 12
25 13
25 14
24 14
24 15
23 15
23 16
22 16
22 17
21 17
21 18
20 18
      </DataArray>
      <DataArray type="Int32" Name="offsets" format="ascii">
2
4
6
8
10
12
14
16
18
20
22
24
26
28
30
32
34
36
38
40
42
44
46
48
50
52
54
56
58
60
62
64
66
68
70
72
74
76
78
80
82
84
86
88
90
92
94
96
98
100
102
104
106
108
110
112
114
116
118
120
122
124
126
128
130
132
134
136
138
      </DataArray>
      <DataArray type="UInt8" Name="types" format="ascii">
4
4
4
4
4
4
4
4
4
4
4
4
4
4
4
4
4
4
4
4
4
4
4
4
4
4
4
4
4
4
4
4
4
4
4
4
4
4
4
4
4
4
4
4
4
4
4
4
4
4
4
4
4
4
4
4
4
4
4
4
4
4
4
4
4
4
4
4
4
      </DataArray>
    </Cells>
    <PointData>
      <DataArray type="Float64" NumberOfComponents="3" Name="Displacement" format="ascii">
0 0 0
-0.000783822 -0.000149983 0
-0.00195396 -0.000166628 0
-0.00284102 -4.94384e-05 0
-0.00277585 0.000201269 0
-0.00100834 0.000582966 0
0.00422852 0.000569253 0
0.00422526 -0.00104621 0
0.00460842 -0.0225438 0
0.00370885 -0.0399429 0
0.00154789 -0.0401327 0
-0.000662502 -0.0231101 0
-0.00159576 -0.00143151 0
-0.00153915 0.000237305 0
0.00342111 -0.000125809 0
0.00455154 -0.000367908 0
0.00410358 -0.000477233 0
0.00274558 -0.000452024 0
0.00114725 -0.000292588 0
0 0 0
0 0 0
0.00116879 1.28152e-05 0
0.00276714 -0.000108815 0
0.00412504 -0.000363926 0
0.00457323 -0.000751793 0
0.00344459 -0.00127327 0
0.00413165 -0.0229531 0
0.00348351 -0.039982 0
0.00148487 -0.0399369 0
-0.000462225 -0.0226759 0
-0.00107216 -0.000647845 0
-0.00275505 -0.000250309 0
-0.00281975 1.24109e-05 0
-0.0019327 0.000141848 0
-0.00076256 0.000137872 0
0 0 0
      </DataArray> 
      <DataArray type="Float64" NumberOfComponents="3" Name="Velocity" format="ascii">
0 0 0
0 0 0
0 0 0
0 0 0
0 0 0
0 0 0
0 0 0
0 0 0
0 0 0
0 0 0
0 0 0
0 0 0
0 0 0
0 0 0
0 0 0
0 0 0
0 0 0
0 0 0
0 0 0
0 0 0
0 0 0
0 0 0
0 0 0
0 0 0
0 0 0
0 0 0
0 0 0
0 0 0
0 0 0
0 0 0
0 0 0
0 0 0
0 0 0
0 0 0
0 0 0
0 0 0
      </DataArray> 
      <DataArray type="Float64" NumberOfComponents="3" Name="Acceleration" format="ascii">
0 0 0
0 0 0
0 0 0
0 0 0
0 0 0
0 0 0
0 0 0
0 0 0
0 0 0
0 0 0
0 0 0
0 0 0
0 0 0
0 0 0
0 0 0
0 0 0
0 0 0
0 0 0
0 0 0
0 0 0
0 0 0
0 0 0
0 0 0
0 0 0
0 0 0
0 0 0
0 0 0
0 0 0
0 0 0
0 0 0
0 0 0
0 0 0
0 0 0
0 0 0
0 0 0
0 0 0
      </DataArray> 
    </PointData>
    <CellData>
    </CellData>
  </Piece>
  </UnstructuredGrid>
</VTKFile>
