<?xml version="1.0"?>
<VTKFile type="UnstructuredGrid">
  <UnstructuredGrid>
  <Piece NumberOfPoints="36"  NumberOfCells="69">
    <Points>
      <DataArray type="Float64" NumberOfComponents="3" format="ascii">
0 0 0
-0.000252843 0.999952 0
-0.000631497 1.99995 0
-0.000921296 2.99998 0
-0.000907599 4.00006 0
-0.000349385 5.00019 0
0.00132289 6.00019 0
0.401323 5.99967 0
3.40146 5.9928 0
6.40119 5.98724 0
9.4005 5.98718 0
12.3998 5.99262 0
15.3995 5.99955 0
15.7995 6.00008 0
15.8011 4.99996 0
15.8015 3.99988 0
15.8013 2.99985 0
15.8009 1.99985 0
15.8004 0.999906 0
15.8 0 0
15.4 0 0
15.4004 1 0
15.4009 1.99997 0
15.4013 2.99989 0
15.4015 3.99976 0
15.4011 4.99959 0
12.4013 4.99267 0
9.40111 4.98722 0
6.40048 4.98724 0
3.39984 4.99276 0
0.399631 4.99979 0
0.399099 3.99992 0
0.399086 3.00001 0
0.399375 2.00005 0
0.399754 1.00004 0
0.4 0 0
      </DataArray>
    </Points>
    <Cells>
      <DataArray type="Int32" Name="connectivity" format="ascii">
0 1
1 2
2 3
3 4
4 5
5 6
6 7
7 8
8 9
9 10
10 11
11 12
12 13
13 14
14 15
15 16
16 17
17 18
18 19
19 20
20 21
21 22
22 23
23 24
24 25
25 26
26 27
27 28
28 29
29 30
30 31
31 32
32 33
33 34
34 35
0 35
0 34
1 34
1 33
2 33
2 32
3 32
3 31
4 31
4 30
5 30
5 7
30 7
30 8
29 8
29 9
28 9
28 10
27 10
27 11
26 11
26 12
25 12
25 13
25 14
24 14
24 15
23 15
23 16
22 16
22 17
21 17
21 18
20 18
      </DataArray>
      <DataArray type="Int32" Name="offsets" format="ascii">
2
4
6
8
10
12
14
16
18
20
22
24
26
28
30
32
34
36
38
40
42
44
46
48
50
52
54
56
58
60
62
64
66
68
70
72
74
76
78
80
82
84
86
88
90
92
94
96
98
100
102
104
106
108
110
112
114
116
118
120
122
124
126
128
130
132
134
136
138
      </DataArray>
      <DataArray type="UInt8" Name="types" format="ascii">
4
4
4
4
4
4
4
4
4
4
4
4
4
4
4
4
4
4
4
4
4
4
4
4
4
4
4
4
4
4
4
4
4
4
4
4
4
4
4
4
4
4
4
4
4
4
4
4
4
4
4
4
4
4
4
4
4
4
4
4
4
4
4
4
4
4
4
4
4
      </DataArray>
    </Cells>
    <PointData>
      <DataArray type="Float64" NumberOfComponents="3" Name="Displacement" format="ascii">
0 0 0
-0.000252843 -4.84314e-05 0
-0.000631497 -5.39861e-05 0
-0.000921296 -1.66123e-05 0
-0.000907599 6.36596e-05 0
-0.000349385 0.000186573 0
0.00132289 0.000185174 0
0.00132256 -0.000329931 0
0.00146241 -0.00719824 0
0.00118608 -0.0127622 0
0.000495769 -0.0128242 0
-0.000200023 -0.00738131 0
-0.000481084 -0.000453729 0
-0.000462161 7.80545e-05 0
0.00112064 -4.11534e-05 0
0.00147484 -0.000118742 0
0.00132458 -0.000153506 0
0.000884398 -0.000145268 0
0.000369008 -9.40628e-05 0
0 0 0
0 0 0
0.000375889 4.6403e-06 0
0.000891282 -3.37117e-05 0
0.00133145 -0.000114956 0
0.00148174 -0.000239018 0
0.00112772 -0.000405983 0
0.00133154 -0.0073337 0
0.00111471 -0.0127772 0
0.000475653 -0.0127616 0
-0.000157696 -0.00724342 0
-0.00036933 -0.000205321 0
-0.000900792 -7.83728e-05 0
-0.000914443 5.54977e-06 0
-0.000624645 4.6602e-05 0
-0.000245991 4.47687e-05 0
0 0 0
      </DataArray> 
      <DataArray type="Float64" NumberOfComponents="3" Name="Velocity" format="ascii">
0 0 0
0 0 0
0 0 0
0 0 0
0 0 0
0 0 0
0 0 0
0 0 0
0 0 0
0 0 0
0 0 0
0 0 0
0 0 0
0 0 0
0 0 0
0 0 0
0 0 0
0 0 0
0 0 0
0 0 0
0 0 0
0 0 0
0 0 0
0 0 0
0 0 0
0 0 0
0 0 0
0 0 0
0 0 0
0 0 0
0 0 0
0 0 0
0 0 0
0 0 0
0 0 0
0 0 0
      </DataArray> 
      <DataArray type="Float64" NumberOfComponents="3" Name="Acceleration" format="ascii">
0 0 0
0 0 0
0 0 0
0 0 0
0 0 0
0 0 0
0 0 0
0 0 0
0 0 0
0 0 0
0 0 0
0 0 0
0 0 0
0 0 0
0 0 0
0 0 0
0 0 0
0 0 0
0 0 0
0 0 0
0 0 0
0 0 0
0 0 0
0 0 0
0 0 0
0 0 0
0 0 0
0 0 0
0 0 0
0 0 0
0 0 0
0 0 0
0 0 0
0 0 0
0 0 0
0 0 0
      </DataArray> 
    </PointData>
    <CellData>
    </CellData>
  </Piece>
  </UnstructuredGrid>
</VTKFile>
