<?xml version="1.0"?>
<VTKFile type="UnstructuredGrid">
  <UnstructuredGrid>
  <Piece NumberOfPoints="36"  NumberOfCells="69">
    <Points>
      <DataArray type="Float64" NumberOfComponents="3" format="ascii">
0 0 0
-0.000442031 0.999915 0
-0.00110328 1.99991 0
-0.00160767 2.99997 0
-0.00157922 4.00011 0
-0.000595973 5.00033 0
0.00233805 6.00032 0
0.402337 5.99942 0
3.40257 5.98737 0
6.40208 5.97761 0
9.40087 5.97751 0
12.3996 5.98705 0
15.3991 5.9992 0
15.7992 6.00014 0
15.8019 4.99993 0
15.8026 3.99979 0
15.8023 2.99973 0
15.8015 1.99975 0
15.8006 0.999835 0
15.8 0 0
15.4 0 0
15.4007 1.00001 0
15.4016 1.99994 0
15.4023 2.9998 0
15.4026 3.99958 0
15.402 4.99929 0
12.4023 4.98714 0
9.40195 4.97759 0
6.40083 4.97761 0
3.39973 4.98729 0
0.399369 4.99964 0
0.398433 3.99986 0
0.398404 3.00001 0
0.398909 2.00008 0
0.39957 1.00008 0
0.4 0 0
      </DataArray>
    </Points>
    <Cells>
      <DataArray type="Int32" Name="connectivity" format="ascii">
0 1
1 2
2 3
3 4
4 5
5 6
6 7
7 8
8 9
9 10
10 11
11 12
12 13
13 14
14 15
15 16
16 17
17 18
18 19
19 20
20 21
21 22
22 23
23 24
24 25
25 26
26 27
27 28
28 29
29 30
30 31
31 32
32 33
33 34
34 35
0 35
0 34
1 34
1 33
2 33
2 32
3 32
3 31
4 31
4 30
5 30
5 7
30 7
30 8
29 8
29 9
28 9
28 10
27 10
27 11
26 11
26 12
25 12
25 13
25 14
24 14
24 15
23 15
23 16
22 16
22 17
21 17
21 18
20 18
      </DataArray>
      <DataArray type="Int32" Name="offsets" format="ascii">
2
4
6
8
10
12
14
16
18
20
22
24
26
28
30
32
34
36
38
40
42
44
46
48
50
52
54
56
58
60
62
64
66
68
70
72
74
76
78
80
82
84
86
88
90
92
94
96
98
100
102
104
106
108
110
112
114
116
118
120
122
124
126
128
130
132
134
136
138
      </DataArray>
      <DataArray type="UInt8" Name="types" format="ascii">
4
4
4
4
4
4
4
4
4
4
4
4
4
4
4
4
4
4
4
4
4
4
4
4
4
4
4
4
4
4
4
4
4
4
4
4
4
4
4
4
4
4
4
4
4
4
4
4
4
4
4
4
4
4
4
4
4
4
4
4
4
4
4
4
4
4
4
4
4
      </DataArray>
    </Cells>
    <PointData>
      <DataArray type="Float64" NumberOfComponents="3" Name="Displacement" format="ascii">
0 0 0
-0.000442031 -8.46397e-05 0
-0.00110328 -9.42379e-05 0
-0.00160767 -2.86366e-05 0
-0.00157922 0.000112068 0
-0.000595973 0.000327085 0
0.00233805 0.000322781 0
0.00233703 -0.000581447 0
0.00257152 -0.0126298 0
0.0020799 -0.0223869 0
0.000868904 -0.0224948 0
-0.000358116 -0.0129496 0
-0.000861779 -0.000798182 0
-0.000829102 0.000135532 0
0.00194865 -7.15982e-05 0
0.00257432 -0.000207556 0
0.00231516 -0.000268641 0
0.00154692 -0.000254303 0
0.000645774 -0.000164642 0
0 0 0
0 0 0
0.000657845 7.80026e-06 0
0.001559 -5.97937e-05 0
0.00232721 -0.000202477 0
0.00258643 -0.000420018 0
0.00196133 -0.000712683 0
0.00232861 -0.0128645 0
0.00195431 -0.0224117 0
0.000833607 -0.022385 0
-0.000270402 -0.0127072 0
-0.000631237 -0.000361203 0
-0.00156738 -0.000138477 0
-0.00159569 8.74791e-06 0
-0.0010913 8.09502e-05 0
-0.000430048 7.80851e-05 0
0 0 0
      </DataArray> 
      <DataArray type="Float64" NumberOfComponents="3" Name="Velocity" format="ascii">
0 0 0
0 0 0
0 0 0
0 0 0
0 0 0
0 0 0
0 0 0
0 0 0
0 0 0
0 0 0
0 0 0
0 0 0
0 0 0
0 0 0
0 0 0
0 0 0
0 0 0
0 0 0
0 0 0
0 0 0
0 0 0
0 0 0
0 0 0
0 0 0
0 0 0
0 0 0
0 0 0
0 0 0
0 0 0
0 0 0
0 0 0
0 0 0
0 0 0
0 0 0
0 0 0
0 0 0
      </DataArray> 
      <DataArray type="Float64" NumberOfComponents="3" Name="Acceleration" format="ascii">
0 0 0
0 0 0
0 0 0
0 0 0
0 0 0
0 0 0
0 0 0
0 0 0
0 0 0
0 0 0
0 0 0
0 0 0
0 0 0
0 0 0
0 0 0
0 0 0
0 0 0
0 0 0
0 0 0
0 0 0
0 0 0
0 0 0
0 0 0
0 0 0
0 0 0
0 0 0
0 0 0
0 0 0
0 0 0
0 0 0
0 0 0
0 0 0
0 0 0
0 0 0
0 0 0
0 0 0
      </DataArray> 
    </PointData>
    <CellData>
    </CellData>
  </Piece>
  </UnstructuredGrid>
</VTKFile>
