<?xml version="1.0"?>
<VTKFile type="UnstructuredGrid">
  <UnstructuredGrid>
  <Piece NumberOfPoints="36"  NumberOfCells="69">
    <Points>
      <DataArray type="Float64" NumberOfComponents="3" format="ascii">
0 0 0
-0.000396961 0.999924 0
-0.000990943 1.99992 0
-0.00144439 2.99997 0
-0.00141981 4.0001 0
-0.000538397 5.00029 0
0.00209422 6.00029 0
0.402093 5.99948 0
3.40231 5.98867 0
6.40187 5.97991 0
9.40078 5.97981 0
12.3997 5.98838 0
15.3992 5.99928 0
15.7993 6.00012 0
15.8018 4.99994 0
15.8023 3.99981 0
15.8021 2.99976 0
15.8014 1.99977 0
15.8006 0.999852 0
15.8 0 0
15.4 0 0
15.4006 1.00001 0
15.4014 1.99995 0
15.4021 2.99982 0
15.4023 3.99962 0
15.4018 4.99936 0
12.4021 4.98846 0
9.40175 4.97989 0
6.40075 4.97991 0
3.39976 4.9886 0
0.39943 4.99968 0
0.398591 3.99988 0
0.398566 3.00001 0
0.39902 2.00007 0
0.399614 1.00007 0
0.4 0 0
      </DataArray>
    </Points>
    <Cells>
      <DataArray type="Int32" Name="connectivity" format="ascii">
0 1
1 2
2 3
3 4
4 5
5 6
6 7
7 8
8 9
9 10
10 11
11 12
12 13
13 14
14 15
15 16
16 17
17 18
18 19
19 20
20 21
21 22
22 23
23 24
24 25
25 26
26 27
27 28
28 29
29 30
30 31
31 32
32 33
33 34
34 35
0 35
0 34
1 34
1 33
2 33
2 32
3 32
3 31
4 31
4 30
5 30
5 7
30 7
30 8
29 8
29 9
28 9
28 10
27 10
27 11
26 11
26 12
25 12
25 13
25 14
24 14
24 15
23 15
23 16
22 16
22 17
21 17
21 18
20 18
      </DataArray>
      <DataArray type="Int32" Name="offsets" format="ascii">
2
4
6
8
10
12
14
16
18
20
22
24
26
28
30
32
34
36
38
40
42
44
46
48
50
52
54
56
58
60
62
64
66
68
70
72
74
76
78
80
82
84
86
88
90
92
94
96
98
100
102
104
106
108
110
112
114
116
118
120
122
124
126
128
130
132
134
136
138
      </DataArray>
      <DataArray type="UInt8" Name="types" format="ascii">
4
4
4
4
4
4
4
4
4
4
4
4
4
4
4
4
4
4
4
4
4
4
4
4
4
4
4
4
4
4
4
4
4
4
4
4
4
4
4
4
4
4
4
4
4
4
4
4
4
4
4
4
4
4
4
4
4
4
4
4
4
4
4
4
4
4
4
4
4
      </DataArray>
    </Cells>
    <PointData>
      <DataArray type="Float64" NumberOfComponents="3" Name="Displacement" format="ascii">
0 0 0
-0.000396961 -7.60163e-05 0
-0.000990943 -8.46602e-05 0
-0.00144439 -2.58043e-05 0
-0.00141981 0.000100475 0
-0.000538397 0.00029354 0
0.00209422 0.000290074 0
0.00209339 -0.000521163 0
0.00230613 -0.0113323 0
0.00186647 -0.0200881 0
0.000779841 -0.0201851 0
-0.000319791 -0.0116195 0
-0.000769454 -0.000715734 0
-0.000740022 0.000121913 0
0.00175222 -6.4373e-05 0
0.00231271 -0.000186401 0
0.00207922 -0.000241191 0
0.00138903 -0.000228301 0
0.000579789 -0.000147813 0
0 0 0
0 0 0
0.00059062 7.072e-06 0
0.00139987 -5.35129e-05 0
0.00209003 -0.000181509 0
0.00232358 -0.000376729 0
0.00176354 -0.000639388 0
0.00209102 -0.0115435 0
0.00175386 -0.0201106 0
0.000748171 -0.0200866 0
-0.000243969 -0.0114021 0
-0.000569981 -0.00032389 0
-0.00140916 -0.000124043 0
-0.00143363 8.06093e-06 0
-0.000980184 7.28084e-05 0
-0.0003862 7.01624e-05 0
0 0 0
      </DataArray> 
      <DataArray type="Float64" NumberOfComponents="3" Name="Velocity" format="ascii">
0 0 0
0 0 0
0 0 0
0 0 0
0 0 0
0 0 0
0 0 0
0 0 0
0 0 0
0 0 0
0 0 0
0 0 0
0 0 0
0 0 0
0 0 0
0 0 0
0 0 0
0 0 0
0 0 0
0 0 0
0 0 0
0 0 0
0 0 0
0 0 0
0 0 0
0 0 0
0 0 0
0 0 0
0 0 0
0 0 0
0 0 0
0 0 0
0 0 0
0 0 0
0 0 0
0 0 0
      </DataArray> 
      <DataArray type="Float64" NumberOfComponents="3" Name="Acceleration" format="ascii">
0 0 0
0 0 0
0 0 0
0 0 0
0 0 0
0 0 0
0 0 0
0 0 0
0 0 0
0 0 0
0 0 0
0 0 0
0 0 0
0 0 0
0 0 0
0 0 0
0 0 0
0 0 0
0 0 0
0 0 0
0 0 0
0 0 0
0 0 0
0 0 0
0 0 0
0 0 0
0 0 0
0 0 0
0 0 0
0 0 0
0 0 0
0 0 0
0 0 0
0 0 0
0 0 0
0 0 0
      </DataArray> 
    </PointData>
    <CellData>
    </CellData>
  </Piece>
  </UnstructuredGrid>
</VTKFile>
