<?xml version="1.0"?>
<VTKFile type="UnstructuredGrid">
  <UnstructuredGrid>
  <Piece NumberOfPoints="36"  NumberOfCells="69">
    <Points>
      <DataArray type="Float64" NumberOfComponents="3" format="ascii">
0 0 0
-0.000670918 0.999872 0
-0.00167319 1.99986 0
-0.00243457 2.99996 0
-0.00238299 4.00017 0
-0.000876912 5.0005 0
0.00359588 6.00049 0
0.403594 5.99911 0
3.40393 5.98075 0
6.40317 5.96588 0
9.40132 5.96572 0
12.3994 5.98026 0
15.3987 5.99878 0
15.7987 6.0002 0
15.8029 4.99989 0
15.8039 3.99969 0
15.8035 2.99959 0
15.8023 1.99961 0
15.801 0.99975 0
15.8 0 0
15.4 0 0
15.401 1.00001 0
15.4024 1.99991 0
15.4035 2.99969 0
15.4039 3.99936 0
15.403 4.99891 0
12.4035 4.98039 0
9.40298 4.96585 0
6.40127 4.96588 0
3.3996 4.98063 0
0.399069 4.99945 0
0.397635 3.99979 0
0.397584 3.00001 0
0.398345 2.00012 0
0.399347 1.00012 0
0.4 0 0
      </DataArray>
    </Points>
    <Cells>
      <DataArray type="Int32" Name="connectivity" format="ascii">
0 1
1 2
2 3
3 4
4 5
5 6
6 7
7 8
8 9
9 10
10 11
11 12
12 13
13 14
14 15
15 16
16 17
17 18
18 19
19 20
20 21
21 22
22 23
23 24
24 25
25 26
26 27
27 28
28 29
29 30
30 31
31 32
32 33
33 34
34 35
0 35
0 34
1 34
1 33
2 33
2 32
3 32
3 31
4 31
4 30
5 30
5 7
30 7
30 8
29 8
29 9
28 9
28 10
27 10
27 11
26 11
26 12
25 12
25 13
25 14
24 14
24 15
23 15
23 16
22 16
22 17
21 17
21 18
20 18
      </DataArray>
      <DataArray type="Int32" Name="offsets" format="ascii">
2
4
6
8
10
12
14
16
18
20
22
24
26
28
30
32
34
36
38
40
42
44
46
48
50
52
54
56
58
60
62
64
66
68
70
72
74
76
78
80
82
84
86
88
90
92
94
96
98
100
102
104
106
108
110
112
114
116
118
120
122
124
126
128
130
132
134
136
138
      </DataArray>
      <DataArray type="UInt8" Name="types" format="ascii">
4
4
4
4
4
4
4
4
4
4
4
4
4
4
4
4
4
4
4
4
4
4
4
4
4
4
4
4
4
4
4
4
4
4
4
4
4
4
4
4
4
4
4
4
4
4
4
4
4
4
4
4
4
4
4
4
4
4
4
4
4
4
4
4
4
4
4
4
4
      </DataArray>
    </Cells>
    <PointData>
      <DataArray type="Float64" NumberOfComponents="3" Name="Displacement" format="ascii">
0 0 0
-0.000670918 -0.000128409 0
-0.00167319 -0.000142764 0
-0.00243457 -4.27014e-05 0
-0.00238299 0.00017155 0
-0.000876912 0.000498148 0
0.00359588 0.000488145 0
0.00359351 -0.000891186 0
0.00393078 -0.0192543 0
0.00316872 -0.0341194 0
0.00132289 -0.0342823 0
-0.000559244 -0.0197392 0
-0.00134663 -0.00122071 0
-0.00129779 0.000203985 0
0.0029381 -0.000108017 0
0.00389972 -0.000314956 0
0.00351299 -0.000408246 0
0.00234938 -0.000386605 0
0.000981388 -0.000250261 0
0 0 0
0 0 0
0.000999784 1.12587e-05 0
0.00236779 -9.23479e-05 0
0.00353133 -0.000310114 0
0.00391823 -0.000641509 0
0.00295791 -0.00108716 0
0.00353581 -0.0196066 0
0.00297658 -0.0341542 0
0.00126908 -0.034115 0
-0.000400565 -0.0193688 0
-0.000931172 -0.000552433 0
-0.00236513 -0.0002129 0
-0.00241637 1.15054e-05 0
-0.001655 0.000121898 0
-0.000652722 0.000118181 0
0 0 0
      </DataArray> 
      <DataArray type="Float64" NumberOfComponents="3" Name="Velocity" format="ascii">
0 0 0
0 0 0
0 0 0
0 0 0
0 0 0
0 0 0
0 0 0
0 0 0
0 0 0
0 0 0
0 0 0
0 0 0
0 0 0
0 0 0
0 0 0
0 0 0
0 0 0
0 0 0
0 0 0
0 0 0
0 0 0
0 0 0
0 0 0
0 0 0
0 0 0
0 0 0
0 0 0
0 0 0
0 0 0
0 0 0
0 0 0
0 0 0
0 0 0
0 0 0
0 0 0
0 0 0
      </DataArray> 
      <DataArray type="Float64" NumberOfComponents="3" Name="Acceleration" format="ascii">
0 0 0
0 0 0
0 0 0
0 0 0
0 0 0
0 0 0
0 0 0
0 0 0
0 0 0
0 0 0
0 0 0
0 0 0
0 0 0
0 0 0
0 0 0
0 0 0
0 0 0
0 0 0
0 0 0
0 0 0
0 0 0
0 0 0
0 0 0
0 0 0
0 0 0
0 0 0
0 0 0
0 0 0
0 0 0
0 0 0
0 0 0
0 0 0
0 0 0
0 0 0
0 0 0
0 0 0
      </DataArray> 
    </PointData>
    <CellData>
    </CellData>
  </Piece>
  </UnstructuredGrid>
</VTKFile>
