<?xml version="1.0"?>
<VTKFile type="UnstructuredGrid">
  <UnstructuredGrid>
  <Piece NumberOfPoints="36"  NumberOfCells="69">
    <Points>
      <DataArray type="Float64" NumberOfComponents="3" format="ascii">
0 0 0
-1.73358e-05 0.999997 0
-4.33326e-05 2 0
-6.331e-05 3 0
-6.25875e-05 4 0
-2.46683e-05 5.00001 0
8.94833e-05 6.00001 0
0.400089 5.99998 0
3.4001 5.99951 0
6.40008 5.99913 0
9.40003 5.99912 0
12.4 5.9995 0
15.4 5.99997 0
15.8 6.00001 0
15.8001 5 0
15.8001 3.99999 0
15.8001 2.99999 0
15.8001 1.99999 0
15.8 0.999994 0
15.8 0 0
15.4 0 0
15.4 1 0
15.4001 2 0
15.4001 2.99999 0
15.4001 3.99998 0
15.4001 4.99997 0
12.4001 4.9995 0
9.40008 4.99913 0
6.40003 4.99913 0
3.39999 4.99951 0
0.399974 4.99999 0
0.399938 3.99999 0
0.399937 3 0
0.399957 2 0
0.399983 1 0
0.4 0 0
      </DataArray>
    </Points>
    <Cells>
      <DataArray type="Int32" Name="connectivity" format="ascii">
0 1
1 2
2 3
3 4
4 5
5 6
6 7
7 8
8 9
9 10
10 11
11 12
12 13
13 14
14 15
15 16
16 17
17 18
18 19
19 20
20 21
21 22
22 23
23 24
24 25
25 26
26 27
27 28
28 29
29 30
30 31
31 32
32 33
33 34
34 35
0 35
0 34
1 34
1 33
2 33
2 32
3 32
3 31
4 31
4 30
5 30
5 7
30 7
30 8
29 8
29 9
28 9
28 10
27 10
27 11
26 11
26 12
25 12
25 13
25 14
24 14
24 15
23 15
23 16
22 16
22 17
21 17
21 18
20 18
      </DataArray>
      <DataArray type="Int32" Name="offsets" format="ascii">
2
4
6
8
10
12
14
16
18
20
22
24
26
28
30
32
34
36
38
40
42
44
46
48
50
52
54
56
58
60
62
64
66
68
70
72
74
76
78
80
82
84
86
88
90
92
94
96
98
100
102
104
106
108
110
112
114
116
118
120
122
124
126
128
130
132
134
136
138
      </DataArray>
      <DataArray type="UInt8" Name="types" format="ascii">
4
4
4
4
4
4
4
4
4
4
4
4
4
4
4
4
4
4
4
4
4
4
4
4
4
4
4
4
4
4
4
4
4
4
4
4
4
4
4
4
4
4
4
4
4
4
4
4
4
4
4
4
4
4
4
4
4
4
4
4
4
4
4
4
4
4
4
4
4
      </DataArray>
    </Cells>
    <PointData>
      <DataArray type="Float64" NumberOfComponents="3" Name="Displacement" format="ascii">
0 0 0
-1.73358e-05 -3.32202e-06 0
-4.33326e-05 -3.70821e-06 0
-6.331e-05 -1.15831e-06 0
-6.25875e-05 4.32754e-06 0
-2.46683e-05 1.27481e-05 0
8.94833e-05 1.27416e-05 0
8.94818e-05 -2.23976e-05 0
9.95509e-05 -0.000491342 0
8.10157e-05 -0.000871385 0
3.38867e-05 -0.000875658 0
-1.33084e-05 -0.000503906 0
-3.19873e-05 -3.08706e-05 0
-3.06705e-05 5.39618e-06 0
7.73391e-05 -2.83817e-06 0
0.000101315 -8.14253e-06 0
9.08418e-05 -1.05113e-05 0
6.05995e-05 -9.94362e-06 0
2.52687e-05 -6.43968e-06 0
0 0 0
0 0 0
2.57385e-05 3.33195e-07 0
6.10693e-05 -2.26999e-06 0
9.13116e-05 -7.8091e-06 0
0.000101785 -1.62838e-05 0
7.78098e-05 -2.76944e-05 0
9.12575e-05 -0.00050073 0
7.61612e-05 -0.000872486 0
3.25138e-05 -0.000871386 0
-1.10666e-05 -0.000494516 0
-2.60169e-05 -1.39691e-05 0
-6.2118e-05 -5.30298e-06 0
-6.28403e-05 4.26592e-07 0
-4.28629e-05 3.22036e-06 0
-1.68661e-05 3.07824e-06 0
0 0 0
      </DataArray> 
      <DataArray type="Float64" NumberOfComponents="3" Name="Velocity" format="ascii">
0 0 0
0 0 0
0 0 0
0 0 0
0 0 0
0 0 0
0 0 0
0 0 0
0 0 0
0 0 0
0 0 0
0 0 0
0 0 0
0 0 0
0 0 0
0 0 0
0 0 0
0 0 0
0 0 0
0 0 0
0 0 0
0 0 0
0 0 0
0 0 0
0 0 0
0 0 0
0 0 0
0 0 0
0 0 0
0 0 0
0 0 0
0 0 0
0 0 0
0 0 0
0 0 0
0 0 0
      </DataArray> 
      <DataArray type="Float64" NumberOfComponents="3" Name="Acceleration" format="ascii">
0 0 0
0 0 0
0 0 0
0 0 0
0 0 0
0 0 0
0 0 0
0 0 0
0 0 0
0 0 0
0 0 0
0 0 0
0 0 0
0 0 0
0 0 0
0 0 0
0 0 0
0 0 0
0 0 0
0 0 0
0 0 0
0 0 0
0 0 0
0 0 0
0 0 0
0 0 0
0 0 0
0 0 0
0 0 0
0 0 0
0 0 0
0 0 0
0 0 0
0 0 0
0 0 0
0 0 0
      </DataArray> 
    </PointData>
    <CellData>
    </CellData>
  </Piece>
  </UnstructuredGrid>
</VTKFile>
