<?xml version="1.0"?>
<VTKFile type="UnstructuredGrid">
  <UnstructuredGrid>
  <Piece NumberOfPoints="36"  NumberOfCells="69">
    <Points>
      <DataArray type="Float64" NumberOfComponents="3" format="ascii">
0 0 0
-0.0007668 0.999853 0
-0.00191164 1.99984 0
-0.0027798 2.99995 0
-0.00271678 4.0002 0
-0.000988832 5.00057 0
0.00413262 6.00056 0
0.40413 5.99898 0
3.40451 5.97795 0
6.40363 5.96094 0
9.40151 5.96075 0
12.3994 5.9774 0
15.3984 5.9986 0
15.7985 6.00023 0
15.8033 4.99988 0
15.8045 3.99964 0
15.804 2.99953 0
15.8027 1.99956 0
15.8011 0.999714 0
15.8 0 0
15.4 0 0
15.4011 1.00001 0
15.4027 1.99989 0
15.404 2.99964 0
15.4045 3.99926 0
15.4034 4.99875 0
12.404 4.97755 0
9.40341 4.9609 0
6.40145 4.96094 0
3.39955 4.97782 0
0.398949 4.99937 0
0.397304 3.99976 0
0.397241 3.00001 0
0.398109 2.00014 0
0.399254 1.00013 0
0.4 0 0
      </DataArray>
    </Points>
    <Cells>
      <DataArray type="Int32" Name="connectivity" format="ascii">
0 1
1 2
2 3
3 4
4 5
5 6
6 7
7 8
8 9
9 10
10 11
11 12
12 13
13 14
14 15
15 16
16 17
17 18
18 19
19 20
20 21
21 22
22 23
23 24
24 25
25 26
26 27
27 28
28 29
29 30
30 31
31 32
32 33
33 34
34 35
0 35
0 34
1 34
1 33
2 33
2 32
3 32
3 31
4 31
4 30
5 30
5 7
30 7
30 8
29 8
29 9
28 9
28 10
27 10
27 11
26 11
26 12
25 12
25 13
25 14
24 14
24 15
23 15
23 16
22 16
22 17
21 17
21 18
20 18
      </DataArray>
      <DataArray type="Int32" Name="offsets" format="ascii">
2
4
6
8
10
12
14
16
18
20
22
24
26
28
30
32
34
36
38
40
42
44
46
48
50
52
54
56
58
60
62
64
66
68
70
72
74
76
78
80
82
84
86
88
90
92
94
96
98
100
102
104
106
108
110
112
114
116
118
120
122
124
126
128
130
132
134
136
138
      </DataArray>
      <DataArray type="UInt8" Name="types" format="ascii">
4
4
4
4
4
4
4
4
4
4
4
4
4
4
4
4
4
4
4
4
4
4
4
4
4
4
4
4
4
4
4
4
4
4
4
4
4
4
4
4
4
4
4
4
4
4
4
4
4
4
4
4
4
4
4
4
4
4
4
4
4
4
4
4
4
4
4
4
4
      </DataArray>
    </Cells>
    <PointData>
      <DataArray type="Float64" NumberOfComponents="3" Name="Displacement" format="ascii">
0 0 0
-0.0007668 -0.000146731 0
-0.00191164 -0.000163033 0
-0.0027798 -4.84313e-05 0
-0.00271678 0.000196772 0
-0.000988832 0.000570159 0
0.00413262 0.000557045 0
0.0041295 -0.00102274 0
0.00450595 -0.0220469 0
0.00362729 -0.0390634 0
0.00151392 -0.0392491 0
-0.000646761 -0.0226009 0
-0.00155777 -0.00139963 0
-0.00150232 0.000232301 0
0.00334851 -0.000123134 0
0.00445335 -0.000359926 0
0.00401455 -0.000466827 0
0.00268583 -0.000442155 0
0.00112223 -0.000286203 0
0 0 0
0 0 0
0.00114329 1.2587e-05 0
0.00270692 -0.000106315 0
0.00403554 -0.000355782 0
0.00447456 -0.000735122 0
0.00337143 -0.00124515 0
0.0040418 -0.0224477 0
0.00340697 -0.0391019 0
0.0014523 -0.0390576 0
-0.000453038 -0.0221764 0
-0.0010512 -0.000633413 0
-0.00269641 -0.000244639 0
-0.002759 1.22938e-05 0
-0.00189085 0.000138851 0
-0.000746 0.000134907 0
0 0 0
      </DataArray> 
      <DataArray type="Float64" NumberOfComponents="3" Name="Velocity" format="ascii">
0 0 0
0 0 0
0 0 0
0 0 0
0 0 0
0 0 0
0 0 0
0 0 0
0 0 0
0 0 0
0 0 0
0 0 0
0 0 0
0 0 0
0 0 0
0 0 0
0 0 0
0 0 0
0 0 0
0 0 0
0 0 0
0 0 0
0 0 0
0 0 0
0 0 0
0 0 0
0 0 0
0 0 0
0 0 0
0 0 0
0 0 0
0 0 0
0 0 0
0 0 0
0 0 0
0 0 0
      </DataArray> 
      <DataArray type="Float64" NumberOfComponents="3" Name="Acceleration" format="ascii">
0 0 0
0 0 0
0 0 0
0 0 0
0 0 0
0 0 0
0 0 0
0 0 0
0 0 0
0 0 0
0 0 0
0 0 0
0 0 0
0 0 0
0 0 0
0 0 0
0 0 0
0 0 0
0 0 0
0 0 0
0 0 0
0 0 0
0 0 0
0 0 0
0 0 0
0 0 0
0 0 0
0 0 0
0 0 0
0 0 0
0 0 0
0 0 0
0 0 0
0 0 0
0 0 0
0 0 0
      </DataArray> 
    </PointData>
    <CellData>
    </CellData>
  </Piece>
  </UnstructuredGrid>
</VTKFile>
