<?xml version="1.0"?>
<VTKFile type="UnstructuredGrid">
  <UnstructuredGrid>
  <Piece NumberOfPoints="36"  NumberOfCells="69">
    <Points>
      <DataArray type="Float64" NumberOfComponents="3" format="ascii">
0 0 0
-0.000551285 0.999894 0
-0.00137543 1.99988 0
-0.00200286 2.99996 0
-0.00196409 4.00014 0
-0.000732474 5.00041 0
0.00293435 6.0004 0
0.402933 5.99927 0
3.40322 5.98422 0
6.4026 5.97203 0
9.40109 5.97189 0
12.3995 5.98382 0
15.3989 5.999 0
15.799 6.00017 0
15.8024 4.99991 0
15.8032 3.99974 0
15.8029 2.99966 0
15.8019 1.99968 0
15.8008 0.999795 0
15.8 0 0
15.4 0 0
15.4008 1.00001 0
15.4019 1.99992 0
15.4029 2.99975 0
15.4032 3.99947 0
15.4024 4.99911 0
12.4029 4.98392 0
9.40244 4.972 0
6.40104 4.97203 0
3.39967 4.98412 0
0.399223 4.99955 0
0.398051 3.99983 0
0.398012 3.00001 0
0.39864 2.0001 0
0.399464 1.0001 0
0.4 0 0
      </DataArray>
    </Points>
    <Cells>
      <DataArray type="Int32" Name="connectivity" format="ascii">
0 1
1 2
2 3
3 4
4 5
5 6
6 7
7 8
8 9
9 10
10 11
11 12
12 13
13 14
14 15
15 16
16 17
17 18
18 19
19 20
20 21
21 22
22 23
23 24
24 25
25 26
26 27
27 28
28 29
29 30
30 31
31 32
32 33
33 34
34 35
0 35
0 34
1 34
1 33
2 33
2 32
3 32
3 31
4 31
4 30
5 30
5 7
30 7
30 8
29 8
29 9
28 9
28 10
27 10
27 11
26 11
26 12
25 12
25 13
25 14
24 14
24 15
23 15
23 16
22 16
22 17
21 17
21 18
20 18
      </DataArray>
      <DataArray type="Int32" Name="offsets" format="ascii">
2
4
6
8
10
12
14
16
18
20
22
24
26
28
30
32
34
36
38
40
42
44
46
48
50
52
54
56
58
60
62
64
66
68
70
72
74
76
78
80
82
84
86
88
90
92
94
96
98
100
102
104
106
108
110
112
114
116
118
120
122
124
126
128
130
132
134
136
138
      </DataArray>
      <DataArray type="UInt8" Name="types" format="ascii">
4
4
4
4
4
4
4
4
4
4
4
4
4
4
4
4
4
4
4
4
4
4
4
4
4
4
4
4
4
4
4
4
4
4
4
4
4
4
4
4
4
4
4
4
4
4
4
4
4
4
4
4
4
4
4
4
4
4
4
4
4
4
4
4
4
4
4
4
4
      </DataArray>
    </Cells>
    <PointData>
      <DataArray type="Float64" NumberOfComponents="3" Name="Displacement" format="ascii">
0 0 0
-0.000551285 -0.000105537 0
-0.00137543 -0.000117425 0
-0.00200286 -3.54172e-05 0
-0.00196409 0.000140334 0
-0.000732474 0.000408591 0
0.00293435 0.000401868 0
0.00293276 -0.000728541 0
0.00321793 -0.0157845 0
0.00259859 -0.027975 0
0.00108525 -0.0281092 0
-0.00045276 -0.0161832 0
-0.00108986 -0.000999067 0
-0.0010494 0.000168357 0
0.00242264 -8.90394e-05 0
0.00320763 -0.000258829 0
0.002887 -0.000335236 0
0.00192983 -0.000317401 0
0.000805865 -0.000205479 0
0 0 0
0 0 0
0.000820948 9.50133e-06 0
0.00194493 -7.5195e-05 0
0.00290204 -0.000253614 0
0.00322278 -0.000525395 0
0.00243867 -0.000890957 0
0.00290471 -0.0160757 0
0.00244138 -0.0280048 0
0.00104114 -0.027972 0
-0.000333387 -0.0158799 0
-0.00077674 -0.000452118 0
-0.00194937 -0.000173766 0
-0.00198791 1.02172e-05 0
-0.00136049 0.000100579 0
-0.000536337 9.72529e-05 0
0 0 0
      </DataArray> 
      <DataArray type="Float64" NumberOfComponents="3" Name="Velocity" format="ascii">
0 0 0
0 0 0
0 0 0
0 0 0
0 0 0
0 0 0
0 0 0
0 0 0
0 0 0
0 0 0
0 0 0
0 0 0
0 0 0
0 0 0
0 0 0
0 0 0
0 0 0
0 0 0
0 0 0
0 0 0
0 0 0
0 0 0
0 0 0
0 0 0
0 0 0
0 0 0
0 0 0
0 0 0
0 0 0
0 0 0
0 0 0
0 0 0
0 0 0
0 0 0
0 0 0
0 0 0
      </DataArray> 
      <DataArray type="Float64" NumberOfComponents="3" Name="Acceleration" format="ascii">
0 0 0
0 0 0
0 0 0
0 0 0
0 0 0
0 0 0
0 0 0
0 0 0
0 0 0
0 0 0
0 0 0
0 0 0
0 0 0
0 0 0
0 0 0
0 0 0
0 0 0
0 0 0
0 0 0
0 0 0
0 0 0
0 0 0
0 0 0
0 0 0
0 0 0
0 0 0
0 0 0
0 0 0
0 0 0
0 0 0
0 0 0
0 0 0
0 0 0
0 0 0
0 0 0
0 0 0
      </DataArray> 
    </PointData>
    <CellData>
    </CellData>
  </Piece>
  </UnstructuredGrid>
</VTKFile>
