<?xml version="1.0"?>
<VTKFile type="UnstructuredGrid">
  <UnstructuredGrid>
  <Piece NumberOfPoints="36"  NumberOfCells="69">
    <Points>
      <DataArray type="Float64" NumberOfComponents="3" format="ascii">
0 0 0
-0.000745512 0.999857 0
-0.00185872 1.99984 0
-0.00270322 2.99995 0
-0.00264282 4.00019 0
-0.000964281 5.00055 0
0.00401295 6.00054 0
0.40401 5.99901 0
3.40438 5.97857 0
6.40353 5.96204 0
9.40147 5.96186 0
12.3994 5.97804 0
15.3985 5.99864 0
15.7985 6.00023 0
15.8033 4.99988 0
15.8043 3.99965 0
15.8039 2.99955 0
15.8026 1.99957 0
15.8011 0.999722 0
15.8 0 0
15.4 0 0
15.4011 1.00001 0
15.4026 1.9999 0
15.4039 2.99965 0
15.4044 3.99929 0
15.4033 4.99879 0
12.4039 4.97818 0
9.40331 4.962 0
6.40141 4.96204 0
3.39956 4.97845 0
0.398975 4.99938 0
0.397377 3.99976 0
0.397317 3.00001 0
0.398161 2.00014 0
0.399275 1.00013 0
0.4 0 0
      </DataArray>
    </Points>
    <Cells>
      <DataArray type="Int32" Name="connectivity" format="ascii">
0 1
1 2
2 3
3 4
4 5
5 6
6 7
7 8
8 9
9 10
10 11
11 12
12 13
13 14
14 15
15 16
16 17
17 18
18 19
19 20
20 21
21 22
22 23
23 24
24 25
25 26
26 27
27 28
28 29
29 30
30 31
31 32
32 33
33 34
34 35
0 35
0 34
1 34
1 33
2 33
2 32
3 32
3 31
4 31
4 30
5 30
5 7
30 7
30 8
29 8
29 9
28 9
28 10
27 10
27 11
26 11
26 12
25 12
25 13
25 14
24 14
24 15
23 15
23 16
22 16
22 17
21 17
21 18
20 18
      </DataArray>
      <DataArray type="Int32" Name="offsets" format="ascii">
2
4
6
8
10
12
14
16
18
20
22
24
26
28
30
32
34
36
38
40
42
44
46
48
50
52
54
56
58
60
62
64
66
68
70
72
74
76
78
80
82
84
86
88
90
92
94
96
98
100
102
104
106
108
110
112
114
116
118
120
122
124
126
128
130
132
134
136
138
      </DataArray>
      <DataArray type="UInt8" Name="types" format="ascii">
4
4
4
4
4
4
4
4
4
4
4
4
4
4
4
4
4
4
4
4
4
4
4
4
4
4
4
4
4
4
4
4
4
4
4
4
4
4
4
4
4
4
4
4
4
4
4
4
4
4
4
4
4
4
4
4
4
4
4
4
4
4
4
4
4
4
4
4
4
      </DataArray>
    </Cells>
    <PointData>
      <DataArray type="Float64" NumberOfComponents="3" Name="Displacement" format="ascii">
0 0 0
-0.000745512 -0.000142664 0
-0.00185872 -0.000158536 0
-0.00270322 -4.71676e-05 0
-0.00264282 0.000191156 0
-0.000964281 0.000554153 0
0.00401295 0.000541767 0
0.00401 -0.00099344 0
0.00437796 -0.021426 0
0.00352535 -0.0379642 0
0.00147146 -0.0381449 0
-0.000627163 -0.0219647 0
-0.00151048 -0.00135981 0
-0.00145649 0.000226033 0
0.0032576 -0.000119785 0
0.00433052 -0.000349943 0
0.0039032 -0.000453816 0
0.00261112 -0.000429815 0
0.00109095 -0.000278219 0
0 0 0
0 0 0
0.00111142 1.22983e-05 0
0.00263161 -0.000103197 0
0.0039236 -0.000345613 0
0.00435112 -0.000714295 0
0.00327982 -0.00121002 0
0.00392944 -0.0218161 0
0.0033113 -0.0380019 0
0.00141158 -0.0379588 0
-0.000441494 -0.0215522 0
-0.00102484 -0.000615389 0
-0.00262301 -0.000237564 0
-0.00268299 1.21376e-05 0
-0.0018385 0.000135098 0
-0.000725291 0.000131197 0
0 0 0
      </DataArray> 
      <DataArray type="Float64" NumberOfComponents="3" Name="Velocity" format="ascii">
0 0 0
0 0 0
0 0 0
0 0 0
0 0 0
0 0 0
0 0 0
0 0 0
0 0 0
0 0 0
0 0 0
0 0 0
0 0 0
0 0 0
0 0 0
0 0 0
0 0 0
0 0 0
0 0 0
0 0 0
0 0 0
0 0 0
0 0 0
0 0 0
0 0 0
0 0 0
0 0 0
0 0 0
0 0 0
0 0 0
0 0 0
0 0 0
0 0 0
0 0 0
0 0 0
0 0 0
      </DataArray> 
      <DataArray type="Float64" NumberOfComponents="3" Name="Acceleration" format="ascii">
0 0 0
0 0 0
0 0 0
0 0 0
0 0 0
0 0 0
0 0 0
0 0 0
0 0 0
0 0 0
0 0 0
0 0 0
0 0 0
0 0 0
0 0 0
0 0 0
0 0 0
0 0 0
0 0 0
0 0 0
0 0 0
0 0 0
0 0 0
0 0 0
0 0 0
0 0 0
0 0 0
0 0 0
0 0 0
0 0 0
0 0 0
0 0 0
0 0 0
0 0 0
0 0 0
0 0 0
      </DataArray> 
    </PointData>
    <CellData>
    </CellData>
  </Piece>
  </UnstructuredGrid>
</VTKFile>
