<?xml version="1.0"?>
<VTKFile type="UnstructuredGrid">
  <UnstructuredGrid>
  <Piece NumberOfPoints="36"  NumberOfCells="69">
    <Points>
      <DataArray type="Float64" NumberOfComponents="3" format="ascii">
0 0 0
-0.000308828 0.999941 0
-0.000771173 1.99993 0
-0.00112468 2.99998 0
-0.00110702 4.00008 0
-0.000423693 5.00023 0
0.00162102 6.00023 0
0.401621 5.9996 0
3.40179 5.9912 0
6.40145 5.9844 0
9.40061 5.98432 0
12.3998 5.99097 0
15.3994 5.99944 0
15.7994 6.0001 0
15.8014 4.99995 0
15.8018 3.99985 0
15.8016 2.99981 0
15.8011 1.99982 0
15.8005 0.999885 0
15.8 0 0
15.4 0 0
15.4005 1.00001 0
15.4011 1.99996 0
15.4016 2.99986 0
15.4018 3.99971 0
15.4014 4.9995 0
12.4016 4.99103 0
9.40136 4.98438 0
6.40058 4.9844 0
3.39981 4.99114 0
0.399552 4.99975 0
0.398901 3.9999 0
0.398884 3.00001 0
0.399237 2.00006 0
0.3997 1.00005 0
0.4 0 0
      </DataArray>
    </Points>
    <Cells>
      <DataArray type="Int32" Name="connectivity" format="ascii">
0 1
1 2
2 3
3 4
4 5
5 6
6 7
7 8
8 9
9 10
10 11
11 12
12 13
13 14
14 15
15 16
16 17
17 18
18 19
19 20
20 21
21 22
22 23
23 24
24 25
25 26
26 27
27 28
28 29
29 30
30 31
31 32
32 33
33 34
34 35
0 35
0 34
1 34
1 33
2 33
2 32
3 32
3 31
4 31
4 30
5 30
5 7
30 7
30 8
29 8
29 9
28 9
28 10
27 10
27 11
26 11
26 12
25 12
25 13
25 14
24 14
24 15
23 15
23 16
22 16
22 17
21 17
21 18
20 18
      </DataArray>
      <DataArray type="Int32" Name="offsets" format="ascii">
2
4
6
8
10
12
14
16
18
20
22
24
26
28
30
32
34
36
38
40
42
44
46
48
50
52
54
56
58
60
62
64
66
68
70
72
74
76
78
80
82
84
86
88
90
92
94
96
98
100
102
104
106
108
110
112
114
116
118
120
122
124
126
128
130
132
134
136
138
      </DataArray>
      <DataArray type="UInt8" Name="types" format="ascii">
4
4
4
4
4
4
4
4
4
4
4
4
4
4
4
4
4
4
4
4
4
4
4
4
4
4
4
4
4
4
4
4
4
4
4
4
4
4
4
4
4
4
4
4
4
4
4
4
4
4
4
4
4
4
4
4
4
4
4
4
4
4
4
4
4
4
4
4
4
      </DataArray>
    </Cells>
    <PointData>
      <DataArray type="Float64" NumberOfComponents="3" Name="Displacement" format="ascii">
0 0 0
-0.000308828 -5.9149e-05 0
-0.000771173 -6.59105e-05 0
-0.00112468 -2.02074e-05 0
-0.00110702 7.79146e-05 0
-0.000423693 0.000228071 0
0.00162102 0.000225981 0
0.00162052 -0.000403941 0
0.00178928 -0.00880146 0
0.00145001 -0.0156036 0
0.000605991 -0.0156792 0
-0.000246047 -0.00902501 0
-0.000591872 -0.000555214 0
-0.000568842 9.5147e-05 0
0.00136661 -5.01943e-05 0
0.00180057 -0.000145027 0
0.00161776 -0.000187552 0
0.00108038 -0.000177504 0
0.00045085 -0.000114931 0
0 0 0
0 0 0
0.000459263 5.60349e-06 0
0.0010888 -4.13528e-05 0
0.00162616 -0.00014072 0
0.001809 -0.000292386 0
0.00137532 -0.000496478 0
0.00162652 -0.00896647 0
0.00136266 -0.0156216 0
0.000581394 -0.0156027 0
-0.000191525 -0.00885631 0
-0.000448136 -0.000251247 0
-0.00109872 -9.60273e-05 0
-0.00111631 6.58197e-06 0
-0.000762803 5.68132e-05 0
-0.000300457 5.46441e-05 0
0 0 0
      </DataArray> 
      <DataArray type="Float64" NumberOfComponents="3" Name="Velocity" format="ascii">
0 0 0
0 0 0
0 0 0
0 0 0
0 0 0
0 0 0
0 0 0
0 0 0
0 0 0
0 0 0
0 0 0
0 0 0
0 0 0
0 0 0
0 0 0
0 0 0
0 0 0
0 0 0
0 0 0
0 0 0
0 0 0
0 0 0
0 0 0
0 0 0
0 0 0
0 0 0
0 0 0
0 0 0
0 0 0
0 0 0
0 0 0
0 0 0
0 0 0
0 0 0
0 0 0
0 0 0
      </DataArray> 
      <DataArray type="Float64" NumberOfComponents="3" Name="Acceleration" format="ascii">
0 0 0
0 0 0
0 0 0
0 0 0
0 0 0
0 0 0
0 0 0
0 0 0
0 0 0
0 0 0
0 0 0
0 0 0
0 0 0
0 0 0
0 0 0
0 0 0
0 0 0
0 0 0
0 0 0
0 0 0
0 0 0
0 0 0
0 0 0
0 0 0
0 0 0
0 0 0
0 0 0
0 0 0
0 0 0
0 0 0
0 0 0
0 0 0
0 0 0
0 0 0
0 0 0
0 0 0
      </DataArray> 
    </PointData>
    <CellData>
    </CellData>
  </Piece>
  </UnstructuredGrid>
</VTKFile>
