<?xml version="1.0"?>
<VTKFile type="UnstructuredGrid">
  <UnstructuredGrid>
  <Piece NumberOfPoints="36"  NumberOfCells="69">
    <Points>
      <DataArray type="Float64" NumberOfComponents="3" format="ascii">
0 0 0
-0.000463476 0.999911 0
-0.00115671 1.9999 0
-0.00168531 2.99997 0
-0.00165494 4.00012 0
-0.000623109 5.00034 0
0.00245451 6.00034 0
0.402453 5.99939 0
3.4027 5.98675 0
6.40218 5.97652 0
9.40091 5.9764 0
12.3996 5.98642 0
15.3991 5.99916 0
15.7991 6.00014 0
15.802 4.99992 0
15.8027 3.99978 0
15.8024 2.99972 0
15.8016 1.99973 0
15.8007 0.999827 0
15.8 0 0
15.4 0 0
15.4007 1.00001 0
15.4016 1.99994 0
15.4024 2.99979 0
15.4027 3.99956 0
15.4021 4.99925 0
12.4024 4.98651 0
9.40205 4.97649 0
6.40087 4.97652 0
3.39972 4.98667 0
0.39934 4.99962 0
0.398357 3.99985 0
0.398327 3.00001 0
0.398856 2.00008 0
0.399549 1.00008 0
0.4 0 0
      </DataArray>
    </Points>
    <Cells>
      <DataArray type="Int32" Name="connectivity" format="ascii">
0 1
1 2
2 3
3 4
4 5
5 6
6 7
7 8
8 9
9 10
10 11
11 12
12 13
13 14
14 15
15 16
16 17
17 18
18 19
19 20
20 21
21 22
22 23
23 24
24 25
25 26
26 27
27 28
28 29
29 30
30 31
31 32
32 33
33 34
34 35
0 35
0 34
1 34
1 33
2 33
2 32
3 32
3 31
4 31
4 30
5 30
5 7
30 7
30 8
29 8
29 9
28 9
28 10
27 10
27 11
26 11
26 12
25 12
25 13
25 14
24 14
24 15
23 15
23 16
22 16
22 17
21 17
21 18
20 18
      </DataArray>
      <DataArray type="Int32" Name="offsets" format="ascii">
2
4
6
8
10
12
14
16
18
20
22
24
26
28
30
32
34
36
38
40
42
44
46
48
50
52
54
56
58
60
62
64
66
68
70
72
74
76
78
80
82
84
86
88
90
92
94
96
98
100
102
104
106
108
110
112
114
116
118
120
122
124
126
128
130
132
134
136
138
      </DataArray>
      <DataArray type="UInt8" Name="types" format="ascii">
4
4
4
4
4
4
4
4
4
4
4
4
4
4
4
4
4
4
4
4
4
4
4
4
4
4
4
4
4
4
4
4
4
4
4
4
4
4
4
4
4
4
4
4
4
4
4
4
4
4
4
4
4
4
4
4
4
4
4
4
4
4
4
4
4
4
4
4
4
      </DataArray>
    </Cells>
    <PointData>
      <DataArray type="Float64" NumberOfComponents="3" Name="Displacement" format="ascii">
0 0 0
-0.000463476 -8.87423e-05 0
-0.00115671 -9.87925e-05 0
-0.00168531 -2.99771e-05 0
-0.00165494 0.000117598 0
-0.000623109 0.000343063 0
0.00245451 0.000338327 0
0.00245339 -0.000610212 0
0.00269806 -0.013248 0
0.00218157 -0.023482 0
0.00091132 -0.0235951 0
-0.000376499 -0.0135832 0
-0.000906068 -0.000837499 0
-0.000871855 0.000141997 0
0.00204193 -7.50298e-05 0
0.00269872 -0.000217621 0
0.00242742 -0.000281707 0
0.00162206 -0.00026668 0
0.000677183 -0.000172653 0
0 0 0
0 0 0
0.000689844 8.14135e-06 0
0.00163473 -6.2797e-05 0
0.00244005 -0.00021248 0
0.00271143 -0.000440652 0
0.00205526 -0.000747608 0
0.00244168 -0.0134938 0
0.00204979 -0.0235078 0
0.000874294 -0.02348 0
-0.000282888 -0.0133289 0
-0.000660131 -0.000378996 0
-0.00164253 -0.00014537 0
-0.00167274 9.05824e-06 0
-0.00114415 8.48151e-05 0
-0.000450911 8.18516e-05 0
0 0 0
      </DataArray> 
      <DataArray type="Float64" NumberOfComponents="3" Name="Velocity" format="ascii">
0 0 0
0 0 0
0 0 0
0 0 0
0 0 0
0 0 0
0 0 0
0 0 0
0 0 0
0 0 0
0 0 0
0 0 0
0 0 0
0 0 0
0 0 0
0 0 0
0 0 0
0 0 0
0 0 0
0 0 0
0 0 0
0 0 0
0 0 0
0 0 0
0 0 0
0 0 0
0 0 0
0 0 0
0 0 0
0 0 0
0 0 0
0 0 0
0 0 0
0 0 0
0 0 0
0 0 0
      </DataArray> 
      <DataArray type="Float64" NumberOfComponents="3" Name="Acceleration" format="ascii">
0 0 0
0 0 0
0 0 0
0 0 0
0 0 0
0 0 0
0 0 0
0 0 0
0 0 0
0 0 0
0 0 0
0 0 0
0 0 0
0 0 0
0 0 0
0 0 0
0 0 0
0 0 0
0 0 0
0 0 0
0 0 0
0 0 0
0 0 0
0 0 0
0 0 0
0 0 0
0 0 0
0 0 0
0 0 0
0 0 0
0 0 0
0 0 0
0 0 0
0 0 0
0 0 0
0 0 0
      </DataArray> 
    </PointData>
    <CellData>
    </CellData>
  </Piece>
  </UnstructuredGrid>
</VTKFile>
