<?xml version="1.0"?>
<VTKFile type="UnstructuredGrid">
  <UnstructuredGrid>
  <Piece NumberOfPoints="36"  NumberOfCells="69">
    <Points>
      <DataArray type="Float64" NumberOfComponents="3" format="ascii">
0 0 0
-0.000538446 0.999897 0
-0.00134346 1.99989 0
-0.00195646 2.99997 0
-0.00191898 4.00014 0
-0.00071666 5.0004 0
0.0028639 6.00039 0
0.402862 5.99929 0
3.40314 5.98459 0
6.40254 5.97268 0
9.40106 5.97255 0
12.3996 5.9842 0
15.3989 5.99902 0
15.799 6.00016 0
15.8024 4.99991 0
15.8031 3.99975 0
15.8028 2.99967 0
15.8019 1.99969 0
15.8008 0.999799 0
15.8 0 0
15.4 0 0
15.4008 1.00001 0
15.4019 1.99993 0
15.4028 2.99975 0
15.4031 3.99949 0
15.4024 4.99913 0
12.4028 4.9843 0
9.40238 4.97265 0
6.40102 4.97269 0
3.39967 4.98449 0
0.39924 4.99956 0
0.398095 3.99983 0
0.398058 3.00001 0
0.398671 2.0001 0
0.399476 1.0001 0
0.4 0 0
      </DataArray>
    </Points>
    <Cells>
      <DataArray type="Int32" Name="connectivity" format="ascii">
0 1
1 2
2 3
3 4
4 5
5 6
6 7
7 8
8 9
9 10
10 11
11 12
12 13
13 14
14 15
15 16
16 17
17 18
18 19
19 20
20 21
21 22
22 23
23 24
24 25
25 26
26 27
27 28
28 29
29 30
30 31
31 32
32 33
33 34
34 35
0 35
0 34
1 34
1 33
2 33
2 32
3 32
3 31
4 31
4 30
5 30
5 7
30 7
30 8
29 8
29 9
28 9
28 10
27 10
27 11
26 11
26 12
25 12
25 13
25 14
24 14
24 15
23 15
23 16
22 16
22 17
21 17
21 18
20 18
      </DataArray>
      <DataArray type="Int32" Name="offsets" format="ascii">
2
4
6
8
10
12
14
16
18
20
22
24
26
28
30
32
34
36
38
40
42
44
46
48
50
52
54
56
58
60
62
64
66
68
70
72
74
76
78
80
82
84
86
88
90
92
94
96
98
100
102
104
106
108
110
112
114
116
118
120
122
124
126
128
130
132
134
136
138
      </DataArray>
      <DataArray type="UInt8" Name="types" format="ascii">
4
4
4
4
4
4
4
4
4
4
4
4
4
4
4
4
4
4
4
4
4
4
4
4
4
4
4
4
4
4
4
4
4
4
4
4
4
4
4
4
4
4
4
4
4
4
4
4
4
4
4
4
4
4
4
4
4
4
4
4
4
4
4
4
4
4
4
4
4
      </DataArray>
    </Cells>
    <PointData>
      <DataArray type="Float64" NumberOfComponents="3" Name="Displacement" format="ascii">
0 0 0
-0.000538446 -0.000103082 0
-0.00134346 -0.000114702 0
-0.00195646 -3.46267e-05 0
-0.00191898 0.000137 0
-0.00071666 0.000398999 0
0.0028639 0.000392589 0
0.00286237 -0.000711185 0
0.00314174 -0.0154131 0
0.00253755 -0.0273171 0
0.0010598 -0.0274483 0
-0.00044151 -0.0158025 0
-0.00106274 -0.000975385 0
-0.00102319 0.000164514 0
0.0023671 -8.69953e-05 0
0.00313327 -0.000252805 0
0.00281981 -0.000327406 0
0.00188482 -0.000309981 0
0.000787042 -0.000200677 0
0 0 0
0 0 0
0.000801771 9.30618e-06 0
0.00189956 -7.33722e-05 0
0.0028345 -0.000247582 0
0.00314807 -0.00051298 0
0.00238274 -0.000869964 0
0.00283701 -0.0156977 0
0.00238406 -0.0273464 0
0.00101672 -0.0273144 0
-0.000326066 -0.0155064 0
-0.000759863 -0.0004414 0
-0.00190459 -0.000169597 0
-0.00194186 1.0059e-05 0
-0.00132886 9.82806e-05 0
-0.000523847 9.50032e-05 0
0 0 0
      </DataArray> 
      <DataArray type="Float64" NumberOfComponents="3" Name="Velocity" format="ascii">
0 0 0
0 0 0
0 0 0
0 0 0
0 0 0
0 0 0
0 0 0
0 0 0
0 0 0
0 0 0
0 0 0
0 0 0
0 0 0
0 0 0
0 0 0
0 0 0
0 0 0
0 0 0
0 0 0
0 0 0
0 0 0
0 0 0
0 0 0
0 0 0
0 0 0
0 0 0
0 0 0
0 0 0
0 0 0
0 0 0
0 0 0
0 0 0
0 0 0
0 0 0
0 0 0
0 0 0
      </DataArray> 
      <DataArray type="Float64" NumberOfComponents="3" Name="Acceleration" format="ascii">
0 0 0
0 0 0
0 0 0
0 0 0
0 0 0
0 0 0
0 0 0
0 0 0
0 0 0
0 0 0
0 0 0
0 0 0
0 0 0
0 0 0
0 0 0
0 0 0
0 0 0
0 0 0
0 0 0
0 0 0
0 0 0
0 0 0
0 0 0
0 0 0
0 0 0
0 0 0
0 0 0
0 0 0
0 0 0
0 0 0
0 0 0
0 0 0
0 0 0
0 0 0
0 0 0
0 0 0
      </DataArray> 
    </PointData>
    <CellData>
    </CellData>
  </Piece>
  </UnstructuredGrid>
</VTKFile>
