<?xml version="1.0"?>
<VTKFile type="UnstructuredGrid">
  <UnstructuredGrid>
  <Piece NumberOfPoints="36"  NumberOfCells="69">
    <Points>
      <DataArray type="Float64" NumberOfComponents="3" format="ascii">
0 0 0
-0.000743383 0.999858 0
-0.00185342 1.99984 0
-0.00269555 2.99995 0
-0.00263542 4.00019 0
-0.000961815 5.00055 0
0.00400099 6.00054 0
0.403998 5.99901 0
3.40437 5.97864 0
6.40352 5.96215 0
9.40147 5.96197 0
12.3994 5.9781 0
15.3985 5.99864 0
15.7985 6.00023 0
15.8032 4.99988 0
15.8043 3.99965 0
15.8039 2.99955 0
15.8026 1.99957 0
15.8011 0.999723 0
15.8 0 0
15.4 0 0
15.4011 1.00001 0
15.4026 1.9999 0
15.4039 2.99966 0
15.4043 3.99929 0
15.4033 4.99879 0
12.4039 4.97825 0
9.4033 4.96211 0
6.40141 4.96215 0
3.39956 4.97851 0
0.398978 4.99939 0
0.397384 3.99976 0
0.397325 3.00001 0
0.398167 2.00013 0
0.399277 1.00013 0
0.4 0 0
      </DataArray>
    </Points>
    <Cells>
      <DataArray type="Int32" Name="connectivity" format="ascii">
0 1
1 2
2 3
3 4
4 5
5 6
6 7
7 8
8 9
9 10
10 11
11 12
12 13
13 14
14 15
15 16
16 17
17 18
18 19
19 20
20 21
21 22
22 23
23 24
24 25
25 26
26 27
27 28
28 29
29 30
30 31
31 32
32 33
33 34
34 35
0 35
0 34
1 34
1 33
2 33
2 32
3 32
3 31
4 31
4 30
5 30
5 7
30 7
30 8
29 8
29 9
28 9
28 10
27 10
27 11
26 11
26 12
25 12
25 13
25 14
24 14
24 15
23 15
23 16
22 16
22 17
21 17
21 18
20 18
      </DataArray>
      <DataArray type="Int32" Name="offsets" format="ascii">
2
4
6
8
10
12
14
16
18
20
22
24
26
28
30
32
34
36
38
40
42
44
46
48
50
52
54
56
58
60
62
64
66
68
70
72
74
76
78
80
82
84
86
88
90
92
94
96
98
100
102
104
106
108
110
112
114
116
118
120
122
124
126
128
130
132
134
136
138
      </DataArray>
      <DataArray type="UInt8" Name="types" format="ascii">
4
4
4
4
4
4
4
4
4
4
4
4
4
4
4
4
4
4
4
4
4
4
4
4
4
4
4
4
4
4
4
4
4
4
4
4
4
4
4
4
4
4
4
4
4
4
4
4
4
4
4
4
4
4
4
4
4
4
4
4
4
4
4
4
4
4
4
4
4
      </DataArray>
    </Cells>
    <PointData>
      <DataArray type="Float64" NumberOfComponents="3" Name="Displacement" format="ascii">
0 0 0
-0.000743383 -0.000142257 0
-0.00185342 -0.000158086 0
-0.00269555 -4.70409e-05 0
-0.00263542 0.000190595 0
-0.000961815 0.000552553 0
0.00400099 0.000540238 0
0.00399806 -0.000990512 0
0.00436516 -0.0213639 0
0.00351516 -0.0378543 0
0.00146722 -0.0380345 0
-0.000625208 -0.021901 0
-0.00150576 -0.00135583 0
-0.00145192 0.000225405 0
0.0032485 -0.00011945 0
0.00431823 -0.000348944 0
0.00389207 -0.000452515 0
0.00260364 -0.000428581 0
0.00108782 -0.000277421 0
0 0 0
0 0 0
0.00110823 1.22692e-05 0
0.00262408 -0.000102886 0
0.00391241 -0.000344597 0
0.00433877 -0.000712213 0
0.00327065 -0.0012065 0
0.0039182 -0.0217529 0
0.00330174 -0.037892 0
0.0014075 -0.0378489 0
-0.000440336 -0.0214898 0
-0.0010222 -0.000613587 0
-0.00261566 -0.000236857 0
-0.00267538 1.21214e-05 0
-0.00183326 0.000134722 0
-0.000723219 0.000130826 0
0 0 0
      </DataArray> 
      <DataArray type="Float64" NumberOfComponents="3" Name="Velocity" format="ascii">
0 0 0
0 0 0
0 0 0
0 0 0
0 0 0
0 0 0
0 0 0
0 0 0
0 0 0
0 0 0
0 0 0
0 0 0
0 0 0
0 0 0
0 0 0
0 0 0
0 0 0
0 0 0
0 0 0
0 0 0
0 0 0
0 0 0
0 0 0
0 0 0
0 0 0
0 0 0
0 0 0
0 0 0
0 0 0
0 0 0
0 0 0
0 0 0
0 0 0
0 0 0
0 0 0
0 0 0
      </DataArray> 
      <DataArray type="Float64" NumberOfComponents="3" Name="Acceleration" format="ascii">
0 0 0
0 0 0
0 0 0
0 0 0
0 0 0
0 0 0
0 0 0
0 0 0
0 0 0
0 0 0
0 0 0
0 0 0
0 0 0
0 0 0
0 0 0
0 0 0
0 0 0
0 0 0
0 0 0
0 0 0
0 0 0
0 0 0
0 0 0
0 0 0
0 0 0
0 0 0
0 0 0
0 0 0
0 0 0
0 0 0
0 0 0
0 0 0
0 0 0
0 0 0
0 0 0
0 0 0
      </DataArray> 
    </PointData>
    <CellData>
    </CellData>
  </Piece>
  </UnstructuredGrid>
</VTKFile>
