<?xml version="1.0"?>
<VTKFile type="UnstructuredGrid">
  <UnstructuredGrid>
  <Piece NumberOfPoints="36"  NumberOfCells="69">
    <Points>
      <DataArray type="Float64" NumberOfComponents="3" format="ascii">
0 0 0
-0.000360441 0.999931 0
-0.000899892 1.99992 0
-0.00131198 2.99998 0
-0.00129037 4.00009 0
-0.000491205 5.00027 0
0.00189755 6.00026 0
0.401897 5.99953 0
3.40209 5.98972 0
6.40169 5.98177 0
9.40071 5.98168 0
12.3997 5.98946 0
15.3993 5.99935 0
15.7993 6.00011 0
15.8016 4.99994 0
15.8021 3.99983 0
15.8019 2.99978 0
15.8013 1.99979 0
15.8005 0.999866 0
15.8 0 0
15.4 0 0
15.4005 1.00001 0
15.4013 1.99995 0
15.4019 2.99984 0
15.4021 3.99966 0
15.4016 4.99942 0
12.4019 4.98953 0
9.40159 4.98175 0
6.40068 4.98177 0
3.39978 4.98965 0
0.39948 4.99971 0
0.398719 3.99989 0
0.398698 3.00001 0
0.39911 2.00007 0
0.399649 1.00006 0
0.4 0 0
      </DataArray>
    </Points>
    <Cells>
      <DataArray type="Int32" Name="connectivity" format="ascii">
0 1
1 2
2 3
3 4
4 5
5 6
6 7
7 8
8 9
9 10
10 11
11 12
12 13
13 14
14 15
15 16
16 17
17 18
18 19
19 20
20 21
21 22
22 23
23 24
24 25
25 26
26 27
27 28
28 29
29 30
30 31
31 32
32 33
33 34
34 35
0 35
0 34
1 34
1 33
2 33
2 32
3 32
3 31
4 31
4 30
5 30
5 7
30 7
30 8
29 8
29 9
28 9
28 10
27 10
27 11
26 11
26 12
25 12
25 13
25 14
24 14
24 15
23 15
23 16
22 16
22 17
21 17
21 18
20 18
      </DataArray>
      <DataArray type="Int32" Name="offsets" format="ascii">
2
4
6
8
10
12
14
16
18
20
22
24
26
28
30
32
34
36
38
40
42
44
46
48
50
52
54
56
58
60
62
64
66
68
70
72
74
76
78
80
82
84
86
88
90
92
94
96
98
100
102
104
106
108
110
112
114
116
118
120
122
124
126
128
130
132
134
136
138
      </DataArray>
      <DataArray type="UInt8" Name="types" format="ascii">
4
4
4
4
4
4
4
4
4
4
4
4
4
4
4
4
4
4
4
4
4
4
4
4
4
4
4
4
4
4
4
4
4
4
4
4
4
4
4
4
4
4
4
4
4
4
4
4
4
4
4
4
4
4
4
4
4
4
4
4
4
4
4
4
4
4
4
4
4
      </DataArray>
    </Cells>
    <PointData>
      <DataArray type="Float64" NumberOfComponents="3" Name="Displacement" format="ascii">
0 0 0
-0.000360441 -6.90275e-05 0
-0.000899892 -7.6894e-05 0
-0.00131198 -2.34944e-05 0
-0.00129037 9.11085e-05 0
-0.000491205 0.00026639 0
0.00189755 0.000263537 0
0.00189688 -0.000472482 0
0.00209161 -0.0102825 0
0.00169375 -0.0182281 0
0.000707751 -0.0183162 0
-0.00028904 -0.0105434 0
-0.000695395 -0.000649104 0
-0.000668606 0.000110843 0
0.00159267 -5.85057e-05 0
0.00210058 -0.000169258 0
0.00188801 -0.000218958 0
0.00126111 -0.000207244 0
0.000526344 -0.000134183 0
0 0 0
0 0 0
0.000536172 6.4706e-06 0
0.00127095 -4.84544e-05 0
0.00189782 -0.000164573 0
0.00211044 -0.00034173 0
0.0016029 -0.000580102 0
0.00189853 -0.0104746 0
0.00159163 -0.0182488 0
0.000679015 -0.0182269 0
-0.000222358 -0.0103462 0
-0.00051982 -0.000293737 0
-0.00128069 -0.000112401 0
-0.00130221 7.4698e-06 0
-0.000890123 6.61922e-05 0
-0.00035067 6.37361e-05 0
0 0 0
      </DataArray> 
      <DataArray type="Float64" NumberOfComponents="3" Name="Velocity" format="ascii">
0 0 0
0 0 0
0 0 0
0 0 0
0 0 0
0 0 0
0 0 0
0 0 0
0 0 0
0 0 0
0 0 0
0 0 0
0 0 0
0 0 0
0 0 0
0 0 0
0 0 0
0 0 0
0 0 0
0 0 0
0 0 0
0 0 0
0 0 0
0 0 0
0 0 0
0 0 0
0 0 0
0 0 0
0 0 0
0 0 0
0 0 0
0 0 0
0 0 0
0 0 0
0 0 0
0 0 0
      </DataArray> 
      <DataArray type="Float64" NumberOfComponents="3" Name="Acceleration" format="ascii">
0 0 0
0 0 0
0 0 0
0 0 0
0 0 0
0 0 0
0 0 0
0 0 0
0 0 0
0 0 0
0 0 0
0 0 0
0 0 0
0 0 0
0 0 0
0 0 0
0 0 0
0 0 0
0 0 0
0 0 0
0 0 0
0 0 0
0 0 0
0 0 0
0 0 0
0 0 0
0 0 0
0 0 0
0 0 0
0 0 0
0 0 0
0 0 0
0 0 0
0 0 0
0 0 0
0 0 0
      </DataArray> 
    </PointData>
    <CellData>
    </CellData>
  </Piece>
  </UnstructuredGrid>
</VTKFile>
