<?xml version="1.0"?>
<VTKFile type="UnstructuredGrid">
  <UnstructuredGrid>
  <Piece NumberOfPoints="36"  NumberOfCells="69">
    <Points>
      <DataArray type="Float64" NumberOfComponents="3" format="ascii">
0 0 0
-0.00036259 0.999931 0
-0.00090525 1.99992 0
-0.00131977 2.99998 0
-0.00129799 4.00009 0
-0.000493996 5.00027 0
0.0019091 6.00027 0
0.401908 5.99952 0
3.4021 5.98966 0
6.4017 5.98166 0
9.40071 5.98157 0
12.3997 5.98939 0
15.3993 5.99935 0
15.7993 6.00011 0
15.8016 4.99994 0
15.8021 3.99983 0
15.8019 2.99978 0
15.8013 1.99979 0
15.8005 0.999865 0
15.8 0 0
15.4 0 0
15.4005 1.00001 0
15.4013 1.99995 0
15.4019 2.99983 0
15.4021 3.99966 0
15.4016 4.99942 0
12.4019 4.98946 0
9.4016 4.98164 0
6.40068 4.98166 0
3.39978 4.98959 0
0.399477 4.9997 0
0.398712 3.99989 0
0.39869 3.00001 0
0.399105 2.00007 0
0.399647 1.00006 0
0.4 0 0
      </DataArray>
    </Points>
    <Cells>
      <DataArray type="Int32" Name="connectivity" format="ascii">
0 1
1 2
2 3
3 4
4 5
5 6
6 7
7 8
8 9
9 10
10 11
11 12
12 13
13 14
14 15
15 16
16 17
17 18
18 19
19 20
20 21
21 22
22 23
23 24
24 25
25 26
26 27
27 28
28 29
29 30
30 31
31 32
32 33
33 34
34 35
0 35
0 34
1 34
1 33
2 33
2 32
3 32
3 31
4 31
4 30
5 30
5 7
30 7
30 8
29 8
29 9
28 9
28 10
27 10
27 11
26 11
26 12
25 12
25 13
25 14
24 14
24 15
23 15
23 16
22 16
22 17
21 17
21 18
20 18
      </DataArray>
      <DataArray type="Int32" Name="offsets" format="ascii">
2
4
6
8
10
12
14
16
18
20
22
24
26
28
30
32
34
36
38
40
42
44
46
48
50
52
54
56
58
60
62
64
66
68
70
72
74
76
78
80
82
84
86
88
90
92
94
96
98
100
102
104
106
108
110
112
114
116
118
120
122
124
126
128
130
132
134
136
138
      </DataArray>
      <DataArray type="UInt8" Name="types" format="ascii">
4
4
4
4
4
4
4
4
4
4
4
4
4
4
4
4
4
4
4
4
4
4
4
4
4
4
4
4
4
4
4
4
4
4
4
4
4
4
4
4
4
4
4
4
4
4
4
4
4
4
4
4
4
4
4
4
4
4
4
4
4
4
4
4
4
4
4
4
4
      </DataArray>
    </Cells>
    <PointData>
      <DataArray type="Float64" NumberOfComponents="3" Name="Displacement" format="ascii">
0 0 0
-0.00036259 -6.94388e-05 0
-0.00090525 -7.73512e-05 0
-0.00131977 -2.36307e-05 0
-0.00129799 9.1659e-05 0
-0.000493996 0.000267987 0
0.0019091 0.000265099 0
0.00190842 -0.000475343 0
0.00210423 -0.0103442 0
0.00170391 -0.0183375 0
0.000711992 -0.0184261 0
-0.000290843 -0.0106067 0
-0.000699734 -0.000653021 0
-0.00067279 0.000111495 0
0.00160207 -5.88513e-05 0
0.00211307 -0.000170266 0
0.00189926 -0.000220266 0
0.00126864 -0.000208483 0
0.000529489 -0.000134985 0
0 0 0
0 0 0
0.000539376 6.50627e-06 0
0.00127853 -4.87514e-05 0
0.00190913 -0.000165568 0
0.00212299 -0.000343788 0
0.00161236 -0.000583588 0
0.00190985 -0.0105375 0
0.00160117 -0.0183583 0
0.000683083 -0.0183362 0
-0.000223634 -0.0104083 0
-0.000522785 -0.000295509 0
-0.00128826 -0.000113085 0
-0.00130994 7.50544e-06 0
-0.000895423 6.6582e-05 0
-0.000352761 6.41144e-05 0
0 0 0
      </DataArray> 
      <DataArray type="Float64" NumberOfComponents="3" Name="Velocity" format="ascii">
0 0 0
0 0 0
0 0 0
0 0 0
0 0 0
0 0 0
0 0 0
0 0 0
0 0 0
0 0 0
0 0 0
0 0 0
0 0 0
0 0 0
0 0 0
0 0 0
0 0 0
0 0 0
0 0 0
0 0 0
0 0 0
0 0 0
0 0 0
0 0 0
0 0 0
0 0 0
0 0 0
0 0 0
0 0 0
0 0 0
0 0 0
0 0 0
0 0 0
0 0 0
0 0 0
0 0 0
      </DataArray> 
      <DataArray type="Float64" NumberOfComponents="3" Name="Acceleration" format="ascii">
0 0 0
0 0 0
0 0 0
0 0 0
0 0 0
0 0 0
0 0 0
0 0 0
0 0 0
0 0 0
0 0 0
0 0 0
0 0 0
0 0 0
0 0 0
0 0 0
0 0 0
0 0 0
0 0 0
0 0 0
0 0 0
0 0 0
0 0 0
0 0 0
0 0 0
0 0 0
0 0 0
0 0 0
0 0 0
0 0 0
0 0 0
0 0 0
0 0 0
0 0 0
0 0 0
0 0 0
      </DataArray> 
    </PointData>
    <CellData>
    </CellData>
  </Piece>
  </UnstructuredGrid>
</VTKFile>
