<?xml version="1.0"?>
<VTKFile type="UnstructuredGrid">
  <UnstructuredGrid>
  <Piece NumberOfPoints="36"  NumberOfCells="69">
    <Points>
      <DataArray type="Float64" NumberOfComponents="3" format="ascii">
0 0 0
-0.000662384 0.999873 0
-0.00165196 1.99986 0
-0.00240381 2.99996 0
-0.0023532 4.00017 0
-0.000866784 5.00049 0
0.0035484 6.00048 0
0.403546 5.99912 0
3.40388 5.98099 0
6.40313 5.96632 0
9.40131 5.96616 0
12.3994 5.98051 0
15.3987 5.9988 0
15.7987 6.0002 0
15.8029 4.99989 0
15.8039 3.99969 0
15.8035 2.9996 0
15.8023 1.99962 0
15.801 0.999753 0
15.8 0 0
15.4 0 0
15.401 1.00001 0
15.4023 1.99991 0
15.4035 2.99969 0
15.4039 3.99937 0
15.4029 4.99893 0
12.4035 4.98065 0
9.40294 4.96629 0
6.40125 4.96632 0
3.3996 4.98088 0
0.39908 4.99945 0
0.397664 3.99979 0
0.397614 3.00001 0
0.398366 2.00012 0
0.399356 1.00012 0
0.4 0 0
      </DataArray>
    </Points>
    <Cells>
      <DataArray type="Int32" Name="connectivity" format="ascii">
0 1
1 2
2 3
3 4
4 5
5 6
6 7
7 8
8 9
9 10
10 11
11 12
12 13
13 14
14 15
15 16
16 17
17 18
18 19
19 20
20 21
21 22
22 23
23 24
24 25
25 26
26 27
27 28
28 29
29 30
30 31
31 32
32 33
33 34
34 35
0 35
0 34
1 34
1 33
2 33
2 32
3 32
3 31
4 31
4 30
5 30
5 7
30 7
30 8
29 8
29 9
28 9
28 10
27 10
27 11
26 11
26 12
25 12
25 13
25 14
24 14
24 15
23 15
23 16
22 16
22 17
21 17
21 18
20 18
      </DataArray>
      <DataArray type="Int32" Name="offsets" format="ascii">
2
4
6
8
10
12
14
16
18
20
22
24
26
28
30
32
34
36
38
40
42
44
46
48
50
52
54
56
58
60
62
64
66
68
70
72
74
76
78
80
82
84
86
88
90
92
94
96
98
100
102
104
106
108
110
112
114
116
118
120
122
124
126
128
130
132
134
136
138
      </DataArray>
      <DataArray type="UInt8" Name="types" format="ascii">
4
4
4
4
4
4
4
4
4
4
4
4
4
4
4
4
4
4
4
4
4
4
4
4
4
4
4
4
4
4
4
4
4
4
4
4
4
4
4
4
4
4
4
4
4
4
4
4
4
4
4
4
4
4
4
4
4
4
4
4
4
4
4
4
4
4
4
4
4
      </DataArray>
    </Cells>
    <PointData>
      <DataArray type="Float64" NumberOfComponents="3" Name="Displacement" format="ascii">
0 0 0
-0.000662384 -0.000126778 0
-0.00165196 -0.000140958 0
-0.00240381 -4.21868e-05 0
-0.0023532 0.000169314 0
-0.000866784 0.000491749 0
0.0035484 0.000482002 0
0.00354608 -0.000879529 0
0.00387976 -0.0190063 0
0.00312797 -0.0336802 0
0.00130592 -0.0338411 0
-0.000551549 -0.019485 0
-0.00132807 -0.00120484 0
-0.00127982 0.000201455 0
0.00290146 -0.000106667 0
0.0038504 -0.000310953 0
0.00346834 -0.000403035 0
0.00231944 -0.000381665 0
0.00096886 -0.000247065 0
0 0 0
0 0 0
0.000987019 1.1137e-05 0
0.00233762 -9.11143e-05 0
0.00348644 -0.000306066 0
0.00386867 -0.000633201 0
0.002921 -0.00107313 0
0.00349078 -0.0193542 0
0.00293834 -0.0337147 0
0.00125279 -0.0336759 0
-0.000395835 -0.0191194 0
-0.000920327 -0.00054525 0
-0.00233556 -0.000210091 0
-0.00238585 1.14247e-05 0
-0.001634 0.000120384 0
-0.00064442 0.00011669 0
0 0 0
      </DataArray> 
      <DataArray type="Float64" NumberOfComponents="3" Name="Velocity" format="ascii">
0 0 0
0 0 0
0 0 0
0 0 0
0 0 0
0 0 0
0 0 0
0 0 0
0 0 0
0 0 0
0 0 0
0 0 0
0 0 0
0 0 0
0 0 0
0 0 0
0 0 0
0 0 0
0 0 0
0 0 0
0 0 0
0 0 0
0 0 0
0 0 0
0 0 0
0 0 0
0 0 0
0 0 0
0 0 0
0 0 0
0 0 0
0 0 0
0 0 0
0 0 0
0 0 0
0 0 0
      </DataArray> 
      <DataArray type="Float64" NumberOfComponents="3" Name="Acceleration" format="ascii">
0 0 0
0 0 0
0 0 0
0 0 0
0 0 0
0 0 0
0 0 0
0 0 0
0 0 0
0 0 0
0 0 0
0 0 0
0 0 0
0 0 0
0 0 0
0 0 0
0 0 0
0 0 0
0 0 0
0 0 0
0 0 0
0 0 0
0 0 0
0 0 0
0 0 0
0 0 0
0 0 0
0 0 0
0 0 0
0 0 0
0 0 0
0 0 0
0 0 0
0 0 0
0 0 0
0 0 0
      </DataArray> 
    </PointData>
    <CellData>
    </CellData>
  </Piece>
  </UnstructuredGrid>
</VTKFile>
