<?xml version="1.0"?>
<VTKFile type="UnstructuredGrid">
  <UnstructuredGrid>
  <Piece NumberOfPoints="36"  NumberOfCells="69">
    <Points>
      <DataArray type="Float64" NumberOfComponents="3" format="ascii">
0 0 0
-0.000293763 0.999944 0
-0.000733591 1.99994 0
-0.00106997 2.99998 0
-0.00105341 4.00007 0
-0.000403807 5.00022 0
0.0015406 6.00022 0
0.40154 5.99962 0
3.4017 5.99163 0
6.40138 5.98516 0
9.40058 5.98509 0
12.3998 5.99142 0
15.3994 5.99947 0
15.7995 6.00009 0
15.8013 4.99995 0
15.8017 3.99986 0
15.8015 2.99982 0
15.801 1.99983 0
15.8004 0.999891 0
15.8 0 0
15.4 0 0
15.4004 1.00001 0
15.401 1.99996 0
15.4015 2.99987 0
15.4017 3.99972 0
15.4013 4.99953 0
12.4015 4.99147 0
9.4013 4.98514 0
6.40055 4.98516 0
3.39982 4.99158 0
0.399573 4.99976 0
0.398954 3.99991 0
0.398938 3.00001 0
0.399274 2.00005 0
0.399714 1.00005 0
0.4 0 0
      </DataArray>
    </Points>
    <Cells>
      <DataArray type="Int32" Name="connectivity" format="ascii">
0 1
1 2
2 3
3 4
4 5
5 6
6 7
7 8
8 9
9 10
10 11
11 12
12 13
13 14
14 15
15 16
16 17
17 18
18 19
19 20
20 21
21 22
22 23
23 24
24 25
25 26
26 27
27 28
28 29
29 30
30 31
31 32
32 33
33 34
34 35
0 35
0 34
1 34
1 33
2 33
2 32
3 32
3 31
4 31
4 30
5 30
5 7
30 7
30 8
29 8
29 9
28 9
28 10
27 10
27 11
26 11
26 12
25 12
25 13
25 14
24 14
24 15
23 15
23 16
22 16
22 17
21 17
21 18
20 18
      </DataArray>
      <DataArray type="Int32" Name="offsets" format="ascii">
2
4
6
8
10
12
14
16
18
20
22
24
26
28
30
32
34
36
38
40
42
44
46
48
50
52
54
56
58
60
62
64
66
68
70
72
74
76
78
80
82
84
86
88
90
92
94
96
98
100
102
104
106
108
110
112
114
116
118
120
122
124
126
128
130
132
134
136
138
      </DataArray>
      <DataArray type="UInt8" Name="types" format="ascii">
4
4
4
4
4
4
4
4
4
4
4
4
4
4
4
4
4
4
4
4
4
4
4
4
4
4
4
4
4
4
4
4
4
4
4
4
4
4
4
4
4
4
4
4
4
4
4
4
4
4
4
4
4
4
4
4
4
4
4
4
4
4
4
4
4
4
4
4
4
      </DataArray>
    </Cells>
    <PointData>
      <DataArray type="Float64" NumberOfComponents="3" Name="Displacement" format="ascii">
0 0 0
-0.000293763 -5.62651e-05 0
-0.000733591 -6.27027e-05 0
-0.00106997 -1.9243e-05 0
-0.00105341 7.40728e-05 0
-0.000403807 0.000216897 0
0.0015406 0.000215007 0
0.00154015 -0.00038399 0
0.0017012 -0.00836969 0
0.00137894 -0.0148384 0
0.000576314 -0.0149104 0
-0.000233599 -0.00858235 0
-0.000561905 -0.000527867 0
-0.000539978 9.05542e-05 0
0.0013005 -4.7764e-05 0
0.00171294 -0.000137954 0
0.00153887 -0.000178389 0
0.00102764 -0.000168827 0
0.000428821 -0.000109314 0
0 0 0
0 0 0
0.000436822 5.34661e-06 0
0.00103564 -3.92902e-05 0
0.00154686 -0.000133776 0
0.00172096 -0.000278009 0
0.00130876 -0.000472104 0
0.00154714 -0.00852677 0
0.0012959 -0.0148556 0
0.000552924 -0.0148376 0
-0.00018246 -0.00842195 0
-0.000427036 -0.000238871 0
-0.00104551 -9.12656e-05 0
-0.00106201 6.31127e-06 0
-0.00072563 5.40692e-05 0
-0.0002858 5.19879e-05 0
0 0 0
      </DataArray> 
      <DataArray type="Float64" NumberOfComponents="3" Name="Velocity" format="ascii">
0 0 0
0 0 0
0 0 0
0 0 0
0 0 0
0 0 0
0 0 0
0 0 0
0 0 0
0 0 0
0 0 0
0 0 0
0 0 0
0 0 0
0 0 0
0 0 0
0 0 0
0 0 0
0 0 0
0 0 0
0 0 0
0 0 0
0 0 0
0 0 0
0 0 0
0 0 0
0 0 0
0 0 0
0 0 0
0 0 0
0 0 0
0 0 0
0 0 0
0 0 0
0 0 0
0 0 0
      </DataArray> 
      <DataArray type="Float64" NumberOfComponents="3" Name="Acceleration" format="ascii">
0 0 0
0 0 0
0 0 0
0 0 0
0 0 0
0 0 0
0 0 0
0 0 0
0 0 0
0 0 0
0 0 0
0 0 0
0 0 0
0 0 0
0 0 0
0 0 0
0 0 0
0 0 0
0 0 0
0 0 0
0 0 0
0 0 0
0 0 0
0 0 0
0 0 0
0 0 0
0 0 0
0 0 0
0 0 0
0 0 0
0 0 0
0 0 0
0 0 0
0 0 0
0 0 0
0 0 0
      </DataArray> 
    </PointData>
    <CellData>
    </CellData>
  </Piece>
  </UnstructuredGrid>
</VTKFile>
