<?xml version="1.0"?>
<VTKFile type="UnstructuredGrid">
  <UnstructuredGrid>
  <Piece NumberOfPoints="36"  NumberOfCells="69">
    <Points>
      <DataArray type="Float64" NumberOfComponents="3" format="ascii">
0 0 0
-0.000472051 0.99991 0
-0.00117808 1.9999 0
-0.00171634 2.99997 0
-0.00168519 4.00012 0
-0.000633913 5.00035 0
0.00250116 6.00034 0
0.4025 5.99938 0
3.40275 5.9865 0
6.40222 5.97608 0
9.40093 5.97596 0
12.3996 5.98616 0
15.3991 5.99915 0
15.7991 6.00014 0
15.8021 4.99992 0
15.8027 3.99978 0
15.8025 2.99971 0
15.8017 1.99973 0
15.8007 0.999824 0
15.8 0 0
15.4 0 0
15.4007 1.00001 0
15.4017 1.99994 0
15.4025 2.99978 0
15.4028 3.99955 0
15.4021 4.99924 0
12.4025 4.98625 0
9.40209 4.97605 0
6.40089 4.97608 0
3.39971 4.98642 0
0.399328 4.99961 0
0.398327 3.99985 0
0.398296 3.00001 0
0.398835 2.00009 0
0.399541 1.00008 0
0.4 0 0
      </DataArray>
    </Points>
    <Cells>
      <DataArray type="Int32" Name="connectivity" format="ascii">
0 1
1 2
2 3
3 4
4 5
5 6
6 7
7 8
8 9
9 10
10 11
11 12
12 13
13 14
14 15
15 16
16 17
17 18
18 19
19 20
20 21
21 22
22 23
23 24
24 25
25 26
26 27
27 28
28 29
29 30
30 31
31 32
32 33
33 34
34 35
0 35
0 34
1 34
1 33
2 33
2 32
3 32
3 31
4 31
4 30
5 30
5 7
30 7
30 8
29 8
29 9
28 9
28 10
27 10
27 11
26 11
26 12
25 12
25 13
25 14
24 14
24 15
23 15
23 16
22 16
22 17
21 17
21 18
20 18
      </DataArray>
      <DataArray type="Int32" Name="offsets" format="ascii">
2
4
6
8
10
12
14
16
18
20
22
24
26
28
30
32
34
36
38
40
42
44
46
48
50
52
54
56
58
60
62
64
66
68
70
72
74
76
78
80
82
84
86
88
90
92
94
96
98
100
102
104
106
108
110
112
114
116
118
120
122
124
126
128
130
132
134
136
138
      </DataArray>
      <DataArray type="UInt8" Name="types" format="ascii">
4
4
4
4
4
4
4
4
4
4
4
4
4
4
4
4
4
4
4
4
4
4
4
4
4
4
4
4
4
4
4
4
4
4
4
4
4
4
4
4
4
4
4
4
4
4
4
4
4
4
4
4
4
4
4
4
4
4
4
4
4
4
4
4
4
4
4
4
4
      </DataArray>
    </Cells>
    <PointData>
      <DataArray type="Float64" NumberOfComponents="3" Name="Displacement" format="ascii">
0 0 0
-0.000472051 -9.03826e-05 0
-0.00117808 -0.000100613 0
-0.00171634 -3.05118e-05 0
-0.00168519 0.000119812 0
-0.000633913 0.000349454 0
0.00250116 0.00034454 0
0.00249999 -0.000621729 0
0.0027487 -0.0134953 0
0.00222224 -0.0239201 0
0.000928287 -0.0240353 0
-0.000383876 -0.0138368 0
-0.000923843 -0.000853235 0
-0.000889017 0.000144579 0
0.0020792 -7.64009e-05 0
0.00274845 -0.000221646 0
0.0024723 -0.000286932 0
0.00165211 -0.000271631 0
0.000689743 -0.000175857 0
0 0 0
0 0 0
0.000702641 8.27676e-06 0
0.00166502 -6.40006e-05 0
0.00248517 -0.000216484 0
0.0027614 -0.00044891 0
0.00209279 -0.000761582 0
0.00248689 -0.0137456 0
0.00208798 -0.0239463 0
0.00089057 -0.023918 0
-0.000287863 -0.0135777 0
-0.000671639 -0.000386118 0
-0.00167256 -0.000148131 0
-0.00170354 9.17934e-06 0
-0.00116528 8.63588e-05 0
-0.000459253 8.33571e-05 0
0 0 0
      </DataArray> 
      <DataArray type="Float64" NumberOfComponents="3" Name="Velocity" format="ascii">
0 0 0
0 0 0
0 0 0
0 0 0
0 0 0
0 0 0
0 0 0
0 0 0
0 0 0
0 0 0
0 0 0
0 0 0
0 0 0
0 0 0
0 0 0
0 0 0
0 0 0
0 0 0
0 0 0
0 0 0
0 0 0
0 0 0
0 0 0
0 0 0
0 0 0
0 0 0
0 0 0
0 0 0
0 0 0
0 0 0
0 0 0
0 0 0
0 0 0
0 0 0
0 0 0
0 0 0
      </DataArray> 
      <DataArray type="Float64" NumberOfComponents="3" Name="Acceleration" format="ascii">
0 0 0
0 0 0
0 0 0
0 0 0
0 0 0
0 0 0
0 0 0
0 0 0
0 0 0
0 0 0
0 0 0
0 0 0
0 0 0
0 0 0
0 0 0
0 0 0
0 0 0
0 0 0
0 0 0
0 0 0
0 0 0
0 0 0
0 0 0
0 0 0
0 0 0
0 0 0
0 0 0
0 0 0
0 0 0
0 0 0
0 0 0
0 0 0
0 0 0
0 0 0
0 0 0
0 0 0
      </DataArray> 
    </PointData>
    <CellData>
    </CellData>
  </Piece>
  </UnstructuredGrid>
</VTKFile>
