<?xml version="1.0"?>
<VTKFile type="UnstructuredGrid">
  <UnstructuredGrid>
  <Piece NumberOfPoints="36"  NumberOfCells="69">
    <Points>
      <DataArray type="Float64" NumberOfComponents="3" format="ascii">
0 0 0
-0.000198942 0.999962 0
-0.000496967 1.99996 0
-0.000725272 2.99999 0
-0.000715068 4.00005 0
-0.000276789 5.00015 0
0.00103766 6.00015 0
0.401037 5.99974 0
3.40115 5.99434 0
6.40093 5.98997 0
9.40039 5.98992 0
12.3998 5.9942 0
15.3996 5.99964 0
15.7996 6.00006 0
15.8009 4.99997 0
15.8012 3.99991 0
15.801 2.99988 0
15.8007 1.99989 0
15.8003 0.999926 0
15.8 0 0
15.4 0 0
15.4003 1 0
15.4007 1.99997 0
15.401 2.99991 0
15.4012 3.99981 0
15.4009 4.99968 0
12.401 4.99424 0
9.40088 4.98996 0
6.40037 4.98997 0
3.39988 4.99431 0
0.399708 4.99984 0
0.39929 3.99994 0
0.39928 3 0
0.399508 2.00004 0
0.399806 1.00004 0
0.4 0 0
      </DataArray>
    </Points>
    <Cells>
      <DataArray type="Int32" Name="connectivity" format="ascii">
0 1
1 2
2 3
3 4
4 5
5 6
6 7
7 8
8 9
9 10
10 11
11 12
12 13
13 14
14 15
15 16
16 17
17 18
18 19
19 20
20 21
21 22
22 23
23 24
24 25
25 26
26 27
27 28
28 29
29 30
30 31
31 32
32 33
33 34
34 35
0 35
0 34
1 34
1 33
2 33
2 32
3 32
3 31
4 31
4 30
5 30
5 7
30 7
30 8
29 8
29 9
28 9
28 10
27 10
27 11
26 11
26 12
25 12
25 13
25 14
24 14
24 15
23 15
23 16
22 16
22 17
21 17
21 18
20 18
      </DataArray>
      <DataArray type="Int32" Name="offsets" format="ascii">
2
4
6
8
10
12
14
16
18
20
22
24
26
28
30
32
34
36
38
40
42
44
46
48
50
52
54
56
58
60
62
64
66
68
70
72
74
76
78
80
82
84
86
88
90
92
94
96
98
100
102
104
106
108
110
112
114
116
118
120
122
124
126
128
130
132
134
136
138
      </DataArray>
      <DataArray type="UInt8" Name="types" format="ascii">
4
4
4
4
4
4
4
4
4
4
4
4
4
4
4
4
4
4
4
4
4
4
4
4
4
4
4
4
4
4
4
4
4
4
4
4
4
4
4
4
4
4
4
4
4
4
4
4
4
4
4
4
4
4
4
4
4
4
4
4
4
4
4
4
4
4
4
4
4
      </DataArray>
    </Cells>
    <PointData>
      <DataArray type="Float64" NumberOfComponents="3" Name="Displacement" format="ascii">
0 0 0
-0.000198942 -3.81106e-05 0
-0.000496967 -4.24953e-05 0
-0.000725272 -1.31221e-05 0
-0.000715068 4.99902e-05 0
-0.000276789 0.000146683 0
0.00103766 0.000145819 0
0.00103745 -0.000259005 0
0.00114876 -0.00565793 0
0.000932422 -0.010032 0
0.000389804 -0.0100808 0
-0.00015631 -0.005802 0
-0.00037589 -0.000356373 0
-0.00036095 6.15325e-05 0
0.000883073 -3.24243e-05 0
0.00116095 -9.34318e-05 0
0.00104227 -0.000120746 0
0.000695762 -0.000114257 0
0.000290259 -7.39853e-05 0
0 0 0
0 0 0
0.000295668 3.6908e-06 0
0.000701173 -2.64158e-05 0
0.00104767 -9.02582e-05 0
0.00116637 -0.000187789 0
0.000888604 -0.000319062 0
0.00104758 -0.00576477 0
0.000876368 -0.010044 0
0.000373993 -0.0100316 0
-0.000124751 -0.00569367 0
-0.000292432 -0.000161264 0
-0.000709704 -6.14791e-05 0
-0.00071988 4.48827e-06 0
-0.000491576 3.67338e-05 0
-0.000193551 3.5248e-05 0
0 0 0
      </DataArray> 
      <DataArray type="Float64" NumberOfComponents="3" Name="Velocity" format="ascii">
0 0 0
0 0 0
0 0 0
0 0 0
0 0 0
0 0 0
0 0 0
0 0 0
0 0 0
0 0 0
0 0 0
0 0 0
0 0 0
0 0 0
0 0 0
0 0 0
0 0 0
0 0 0
0 0 0
0 0 0
0 0 0
0 0 0
0 0 0
0 0 0
0 0 0
0 0 0
0 0 0
0 0 0
0 0 0
0 0 0
0 0 0
0 0 0
0 0 0
0 0 0
0 0 0
0 0 0
      </DataArray> 
      <DataArray type="Float64" NumberOfComponents="3" Name="Acceleration" format="ascii">
0 0 0
0 0 0
0 0 0
0 0 0
0 0 0
0 0 0
0 0 0
0 0 0
0 0 0
0 0 0
0 0 0
0 0 0
0 0 0
0 0 0
0 0 0
0 0 0
0 0 0
0 0 0
0 0 0
0 0 0
0 0 0
0 0 0
0 0 0
0 0 0
0 0 0
0 0 0
0 0 0
0 0 0
0 0 0
0 0 0
0 0 0
0 0 0
0 0 0
0 0 0
0 0 0
0 0 0
      </DataArray> 
    </PointData>
    <CellData>
    </CellData>
  </Piece>
  </UnstructuredGrid>
</VTKFile>
