<?xml version="1.0"?>
<VTKFile type="UnstructuredGrid">
  <UnstructuredGrid>
  <Piece NumberOfPoints="36"  NumberOfCells="69">
    <Points>
      <DataArray type="Float64" NumberOfComponents="3" format="ascii">
0 0 0
-0.000424868 0.999919 0
-0.0010605 1.99991 0
-0.00154551 2.99997 0
-0.00151856 4.00011 0
-0.000574133 5.00031 0
0.00224505 6.00031 0
0.402244 5.99944 0
3.40247 5.98786 0
6.402 5.97849 0
9.40083 5.97839 0
12.3997 5.98756 0
15.3992 5.99923 0
15.7992 6.00013 0
15.8019 4.99993 0
15.8025 3.9998 0
15.8022 2.99974 0
15.8015 1.99976 0
15.8006 0.999842 0
15.8 0 0
15.4 0 0
15.4006 1.00001 0
15.4015 1.99994 0
15.4022 2.99981 0
15.4025 3.9996 0
15.4019 4.99932 0
12.4022 4.98764 0
9.40188 4.97847 0
6.4008 4.97849 0
3.39974 4.98779 0
0.399392 4.99965 0
0.398493 3.99987 0
0.398466 3.00001 0
0.398951 2.00008 0
0.399587 1.00008 0
0.4 0 0
      </DataArray>
    </Points>
    <Cells>
      <DataArray type="Int32" Name="connectivity" format="ascii">
0 1
1 2
2 3
3 4
4 5
5 6
6 7
7 8
8 9
9 10
10 11
11 12
12 13
13 14
14 15
15 16
16 17
17 18
18 19
19 20
20 21
21 22
22 23
23 24
24 25
25 26
26 27
27 28
28 29
29 30
30 31
31 32
32 33
33 34
34 35
0 35
0 34
1 34
1 33
2 33
2 32
3 32
3 31
4 31
4 30
5 30
5 7
30 7
30 8
29 8
29 9
28 9
28 10
27 10
27 11
26 11
26 12
25 12
25 13
25 14
24 14
24 15
23 15
23 16
22 16
22 17
21 17
21 18
20 18
      </DataArray>
      <DataArray type="Int32" Name="offsets" format="ascii">
2
4
6
8
10
12
14
16
18
20
22
24
26
28
30
32
34
36
38
40
42
44
46
48
50
52
54
56
58
60
62
64
66
68
70
72
74
76
78
80
82
84
86
88
90
92
94
96
98
100
102
104
106
108
110
112
114
116
118
120
122
124
126
128
130
132
134
136
138
      </DataArray>
      <DataArray type="UInt8" Name="types" format="ascii">
4
4
4
4
4
4
4
4
4
4
4
4
4
4
4
4
4
4
4
4
4
4
4
4
4
4
4
4
4
4
4
4
4
4
4
4
4
4
4
4
4
4
4
4
4
4
4
4
4
4
4
4
4
4
4
4
4
4
4
4
4
4
4
4
4
4
4
4
4
      </DataArray>
    </Cells>
    <PointData>
      <DataArray type="Float64" NumberOfComponents="3" Name="Displacement" format="ascii">
0 0 0
-0.000424868 -8.13559e-05 0
-0.0010605 -9.05913e-05 0
-0.00154551 -2.75604e-05 0
-0.00151856 0.000107649 0
-0.000574133 0.000314305 0
0.00224505 0.000310331 0
0.0022441 -0.000558462 0
0.00247037 -0.0121354 0
0.00199858 -0.021511 0
0.000834974 -0.0216148 0
-0.000343472 -0.0124428 0
-0.000826498 -0.000766755 0
-0.000795055 0.000130351 0
0.00187391 -6.88487e-05 0
0.00247471 -0.0001995 0
0.00222531 -0.000258186 0
0.00148679 -0.000244399 0
0.000620642 -0.000158232 0
0 0 0
0 0 0
0.00063224 7.52474e-06 0
0.00149839 -5.73968e-05 0
0.00223689 -0.000194483 0
0.00248635 -0.00040352 0
0.00188607 -0.000684753 0
0.00223813 -0.0123612 0
0.00187794 -0.0215349 0
0.000801059 -0.0215093 0
-0.000260367 -0.0122099 0
-0.000607993 -0.00034698 0
-0.00150717 -0.000132972 0
-0.00153399 8.49184e-06 0
-0.00104899 7.78526e-05 0
-0.00041335 7.5069e-05 0
0 0 0
      </DataArray> 
      <DataArray type="Float64" NumberOfComponents="3" Name="Velocity" format="ascii">
0 0 0
0 0 0
0 0 0
0 0 0
0 0 0
0 0 0
0 0 0
0 0 0
0 0 0
0 0 0
0 0 0
0 0 0
0 0 0
0 0 0
0 0 0
0 0 0
0 0 0
0 0 0
0 0 0
0 0 0
0 0 0
0 0 0
0 0 0
0 0 0
0 0 0
0 0 0
0 0 0
0 0 0
0 0 0
0 0 0
0 0 0
0 0 0
0 0 0
0 0 0
0 0 0
0 0 0
      </DataArray> 
      <DataArray type="Float64" NumberOfComponents="3" Name="Acceleration" format="ascii">
0 0 0
0 0 0
0 0 0
0 0 0
0 0 0
0 0 0
0 0 0
0 0 0
0 0 0
0 0 0
0 0 0
0 0 0
0 0 0
0 0 0
0 0 0
0 0 0
0 0 0
0 0 0
0 0 0
0 0 0
0 0 0
0 0 0
0 0 0
0 0 0
0 0 0
0 0 0
0 0 0
0 0 0
0 0 0
0 0 0
0 0 0
0 0 0
0 0 0
0 0 0
0 0 0
0 0 0
      </DataArray> 
    </PointData>
    <CellData>
    </CellData>
  </Piece>
  </UnstructuredGrid>
</VTKFile>
