<?xml version="1.0"?>
<VTKFile type="UnstructuredGrid">
  <UnstructuredGrid>
  <Piece NumberOfPoints="36"  NumberOfCells="69">
    <Points>
      <DataArray type="Float64" NumberOfComponents="3" format="ascii">
0 0 0
-0.00104041 0.999801 0
-0.00259113 1.99978 0
-0.00376108 2.99994 0
-0.00365959 4.00027 0
-0.00128906 5.00078 0
0.00569682 6.00075 0
0.405691 5.9986 0
3.40617 5.96993 0
6.40494 5.94673 0
9.40206 5.94648 0
12.3991 5.96918 0
15.3978 5.99808 0
15.7979 6.00031 0
15.8045 4.99983 0
15.806 3.99951 0
15.8054 2.99937 0
15.8036 1.9994 0
15.8015 0.999611 0
15.8 0 0
15.4 0 0
15.4016 1.00002 0
15.4037 1.99985 0
15.4055 2.99951 0
15.4061 3.999 0
15.4045 4.9983 0
12.4055 4.96939 0
9.40464 4.94668 0
6.40198 4.94674 0
3.3994 4.96976 0
0.398625 4.99913 0
0.396368 3.99966 0
0.396267 3.00001 0
0.397437 2.00019 0
0.398988 1.00018 0
0.4 0 0
      </DataArray>
    </Points>
    <Cells>
      <DataArray type="Int32" Name="connectivity" format="ascii">
0 1
1 2
2 3
3 4
4 5
5 6
6 7
7 8
8 9
9 10
10 11
11 12
12 13
13 14
14 15
15 16
16 17
17 18
18 19
19 20
20 21
21 22
22 23
23 24
24 25
25 26
26 27
27 28
28 29
29 30
30 31
31 32
32 33
33 34
34 35
0 35
0 34
1 34
1 33
2 33
2 32
3 32
3 31
4 31
4 30
5 30
5 7
30 7
30 8
29 8
29 9
28 9
28 10
27 10
27 11
26 11
26 12
25 12
25 13
25 14
24 14
24 15
23 15
23 16
22 16
22 17
21 17
21 18
20 18
      </DataArray>
      <DataArray type="Int32" Name="offsets" format="ascii">
2
4
6
8
10
12
14
16
18
20
22
24
26
28
30
32
34
36
38
40
42
44
46
48
50
52
54
56
58
60
62
64
66
68
70
72
74
76
78
80
82
84
86
88
90
92
94
96
98
100
102
104
106
108
110
112
114
116
118
120
122
124
126
128
130
132
134
136
138
      </DataArray>
      <DataArray type="UInt8" Name="types" format="ascii">
4
4
4
4
4
4
4
4
4
4
4
4
4
4
4
4
4
4
4
4
4
4
4
4
4
4
4
4
4
4
4
4
4
4
4
4
4
4
4
4
4
4
4
4
4
4
4
4
4
4
4
4
4
4
4
4
4
4
4
4
4
4
4
4
4
4
4
4
4
      </DataArray>
    </Cells>
    <PointData>
      <DataArray type="Float64" NumberOfComponents="3" Name="Displacement" format="ascii">
0 0 0
-0.00104041 -0.000198972 0
-0.00259113 -0.000220675 0
-0.00376108 -6.42381e-05 0
-0.00365959 0.000269761 0
-0.00128906 0.000776816 0
0.00569682 0.000752414 0
0.00569101 -0.00140413 0
0.00616634 -0.0300743 0
0.00494402 -0.0532682 0
0.00206184 -0.0535185 0
-0.000907314 -0.030825 0
-0.00218694 -0.00191655 0
-0.00211317 0.000311904 0
0.00450608 -0.000165804 0
0.0060279 -0.000488171 0
0.00544511 -0.000634313 0
0.00364691 -0.000601084 0
0.001525 -0.000389014 0
0 0 0
0 0 0
0.00155371 1.59783e-05 0
0.00367567 -0.00014726 0
0.00547369 -0.000488006 0
0.0060569 -0.00100499 0
0.00453826 -0.00169975 0
0.00548666 -0.0306105 0
0.00464221 -0.0533152 0
0.00197777 -0.0532573 0
-0.000595968 -0.0302443 0
-0.00137509 -0.000867397 0
-0.00363217 -0.000337077 0
-0.00373283 1.33328e-05 0
-0.0025629 0.000186566 0
-0.00101217 0.000182405 0
0 0 0
      </DataArray> 
      <DataArray type="Float64" NumberOfComponents="3" Name="Velocity" format="ascii">
0 0 0
0 0 0
0 0 0
0 0 0
0 0 0
0 0 0
0 0 0
0 0 0
0 0 0
0 0 0
0 0 0
0 0 0
0 0 0
0 0 0
0 0 0
0 0 0
0 0 0
0 0 0
0 0 0
0 0 0
0 0 0
0 0 0
0 0 0
0 0 0
0 0 0
0 0 0
0 0 0
0 0 0
0 0 0
0 0 0
0 0 0
0 0 0
0 0 0
0 0 0
0 0 0
0 0 0
      </DataArray> 
      <DataArray type="Float64" NumberOfComponents="3" Name="Acceleration" format="ascii">
0 0 0
0 0 0
0 0 0
0 0 0
0 0 0
0 0 0
0 0 0
0 0 0
0 0 0
0 0 0
0 0 0
0 0 0
0 0 0
0 0 0
0 0 0
0 0 0
0 0 0
0 0 0
0 0 0
0 0 0
0 0 0
0 0 0
0 0 0
0 0 0
0 0 0
0 0 0
0 0 0
0 0 0
0 0 0
0 0 0
0 0 0
0 0 0
0 0 0
0 0 0
0 0 0
0 0 0
      </DataArray> 
    </PointData>
    <CellData>
    </CellData>
  </Piece>
  </UnstructuredGrid>
</VTKFile>
