<?xml version="1.0"?>
<VTKFile type="UnstructuredGrid">
  <UnstructuredGrid>
  <Piece NumberOfPoints="36"  NumberOfCells="69">
    <Points>
      <DataArray type="Float64" NumberOfComponents="3" format="ascii">
0 0 0
-0.000233447 0.999955 0
-0.000583092 1.99995 0
-0.00085078 2.99998 0
-0.000838376 4.00006 0
-0.000323379 5.00017 0
0.00122004 6.00017 0
0.40122 5.9997 0
3.40135 5.99336 0
6.40109 5.98822 0
9.40046 5.98816 0
12.3998 5.99319 0
15.3996 5.99958 0
15.7996 6.00007 0
15.801 4.99996 0
15.8014 3.99989 0
15.8012 2.99986 0
15.8008 1.99987 0
15.8003 0.999913 0
15.8 0 0
15.4 0 0
15.4003 1 0
15.4008 1.99997 0
15.4012 2.99989 0
15.4014 3.99978 0
15.401 4.99963 0
12.4012 4.99323 0
9.40103 4.98821 0
6.40044 4.98822 0
3.39985 4.99331 0
0.399658 4.99981 0
0.399168 3.99993 0
0.399156 3.00001 0
0.399423 2.00004 0
0.399773 1.00004 0
0.4 0 0
      </DataArray>
    </Points>
    <Cells>
      <DataArray type="Int32" Name="connectivity" format="ascii">
0 1
1 2
2 3
3 4
4 5
5 6
6 7
7 8
8 9
9 10
10 11
11 12
12 13
13 14
14 15
15 16
16 17
17 18
18 19
19 20
20 21
21 22
22 23
23 24
24 25
25 26
26 27
27 28
28 29
29 30
30 31
31 32
32 33
33 34
34 35
0 35
0 34
1 34
1 33
2 33
2 32
3 32
3 31
4 31
4 30
5 30
5 7
30 7
30 8
29 8
29 9
28 9
28 10
27 10
27 11
26 11
26 12
25 12
25 13
25 14
24 14
24 15
23 15
23 16
22 16
22 17
21 17
21 18
20 18
      </DataArray>
      <DataArray type="Int32" Name="offsets" format="ascii">
2
4
6
8
10
12
14
16
18
20
22
24
26
28
30
32
34
36
38
40
42
44
46
48
50
52
54
56
58
60
62
64
66
68
70
72
74
76
78
80
82
84
86
88
90
92
94
96
98
100
102
104
106
108
110
112
114
116
118
120
122
124
126
128
130
132
134
136
138
      </DataArray>
      <DataArray type="UInt8" Name="types" format="ascii">
4
4
4
4
4
4
4
4
4
4
4
4
4
4
4
4
4
4
4
4
4
4
4
4
4
4
4
4
4
4
4
4
4
4
4
4
4
4
4
4
4
4
4
4
4
4
4
4
4
4
4
4
4
4
4
4
4
4
4
4
4
4
4
4
4
4
4
4
4
      </DataArray>
    </Cells>
    <PointData>
      <DataArray type="Float64" NumberOfComponents="3" Name="Displacement" format="ascii">
0 0 0
-0.000233447 -4.47177e-05 0
-0.000583092 -4.98522e-05 0
-0.00085078 -1.53596e-05 0
-0.000838376 5.87344e-05 0
-0.000323379 0.000172211 0
0.00122004 0.00017102 0
0.00121976 -0.000304371 0
0.00134942 -0.00664359 0
0.00109475 -0.0117791 0
0.000457619 -0.0118364 0
-0.000184225 -0.00681263 0
-0.000443064 -0.000418655 0
-0.000425571 7.21164e-05 0
0.00103523 -3.8015e-05 0
0.00136192 -0.000109634 0
0.00122299 -0.000141715 0
0.00081651 -0.000134106 0
0.000340665 -8.68362e-05 0
0 0 0
0 0 0
0.000347016 4.30111e-06 0
0.000822864 -3.10793e-05 0
0.00122933 -0.000106057 0
0.00136828 -0.000220566 0
0.00104175 -0.000374681 0
0.00122935 -0.00676877 0
0.00102889 -0.0117931 0
0.000439054 -0.0117786 0
-0.000145883 -0.00668538 0
-0.000341773 -0.000189449 0
-0.000832088 -7.22818e-05 0
-0.000844452 5.17542e-06 0
-0.000576766 4.3055e-05 0
-0.00022712 4.13441e-05 0
0 0 0
      </DataArray> 
      <DataArray type="Float64" NumberOfComponents="3" Name="Velocity" format="ascii">
0 0 0
0 0 0
0 0 0
0 0 0
0 0 0
0 0 0
0 0 0
0 0 0
0 0 0
0 0 0
0 0 0
0 0 0
0 0 0
0 0 0
0 0 0
0 0 0
0 0 0
0 0 0
0 0 0
0 0 0
0 0 0
0 0 0
0 0 0
0 0 0
0 0 0
0 0 0
0 0 0
0 0 0
0 0 0
0 0 0
0 0 0
0 0 0
0 0 0
0 0 0
0 0 0
0 0 0
      </DataArray> 
      <DataArray type="Float64" NumberOfComponents="3" Name="Acceleration" format="ascii">
0 0 0
0 0 0
0 0 0
0 0 0
0 0 0
0 0 0
0 0 0
0 0 0
0 0 0
0 0 0
0 0 0
0 0 0
0 0 0
0 0 0
0 0 0
0 0 0
0 0 0
0 0 0
0 0 0
0 0 0
0 0 0
0 0 0
0 0 0
0 0 0
0 0 0
0 0 0
0 0 0
0 0 0
0 0 0
0 0 0
0 0 0
0 0 0
0 0 0
0 0 0
0 0 0
0 0 0
      </DataArray> 
    </PointData>
    <CellData>
    </CellData>
  </Piece>
  </UnstructuredGrid>
</VTKFile>
