<?xml version="1.0"?>
<VTKFile type="UnstructuredGrid">
  <UnstructuredGrid>
  <Piece NumberOfPoints="36"  NumberOfCells="69">
    <Points>
      <DataArray type="Float64" NumberOfComponents="3" format="ascii">
0 0 0
-0.000579088 0.999889 0
-0.00144465 1.99988 0
-0.00210328 2.99996 0
-0.00206168 4.00015 0
-0.000766513 5.00043 0
0.00308729 6.00042 0
0.403086 5.99923 0
3.40338 5.98341 0
6.40273 5.9706 0
9.40114 5.97046 0
12.3995 5.98299 0
15.3989 5.99895 0
15.7989 6.00018 0
15.8025 4.99991 0
15.8034 3.99973 0
15.803 2.99965 0
15.802 1.99967 0
15.8008 0.999784 0
15.8 0 0
15.4 0 0
15.4009 1.00001 0
15.402 1.99992 0
15.403 2.99973 0
15.4034 3.99945 0
15.4026 4.99906 0
12.4031 4.98311 0
9.40257 4.97057 0
6.40109 4.9706 0
3.39965 4.98331 0
0.399187 4.99952 0
0.397954 3.99982 0
0.397912 3.00001 0
0.398571 2.00011 0
0.399437 1.0001 0
0.4 0 0
      </DataArray>
    </Points>
    <Cells>
      <DataArray type="Int32" Name="connectivity" format="ascii">
0 1
1 2
2 3
3 4
4 5
5 6
6 7
7 8
8 9
9 10
10 11
11 12
12 13
13 14
14 15
15 16
16 17
17 18
18 19
19 20
20 21
21 22
22 23
23 24
24 25
25 26
26 27
27 28
28 29
29 30
30 31
31 32
32 33
33 34
34 35
0 35
0 34
1 34
1 33
2 33
2 32
3 32
3 31
4 31
4 30
5 30
5 7
30 7
30 8
29 8
29 9
28 9
28 10
27 10
27 11
26 11
26 12
25 12
25 13
25 14
24 14
24 15
23 15
23 16
22 16
22 17
21 17
21 18
20 18
      </DataArray>
      <DataArray type="Int32" Name="offsets" format="ascii">
2
4
6
8
10
12
14
16
18
20
22
24
26
28
30
32
34
36
38
40
42
44
46
48
50
52
54
56
58
60
62
64
66
68
70
72
74
76
78
80
82
84
86
88
90
92
94
96
98
100
102
104
106
108
110
112
114
116
118
120
122
124
126
128
130
132
134
136
138
      </DataArray>
      <DataArray type="UInt8" Name="types" format="ascii">
4
4
4
4
4
4
4
4
4
4
4
4
4
4
4
4
4
4
4
4
4
4
4
4
4
4
4
4
4
4
4
4
4
4
4
4
4
4
4
4
4
4
4
4
4
4
4
4
4
4
4
4
4
4
4
4
4
4
4
4
4
4
4
4
4
4
4
4
4
      </DataArray>
    </Cells>
    <PointData>
      <DataArray type="Float64" NumberOfComponents="3" Name="Displacement" format="ascii">
0 0 0
-0.000579088 -0.000110854 0
-0.00144465 -0.000123318 0
-0.00210328 -3.71233e-05 0
-0.00206168 0.000147564 0
-0.000766513 0.000429375 0
0.00308729 0.00042195 0
0.00308553 -0.000766193 0
0.00338313 -0.0165894 0
0.00273089 -0.0294005 0
0.00114041 -0.0295414 0
-0.00047724 -0.0170082 0
-0.00114888 -0.00105042 0
-0.00110646 0.000176666 0
0.00254277 -9.34611e-05 0
0.0033686 -0.000271875 0
0.0030325 -0.000352196 0
0.00202731 -0.000333474 0
0.000846636 -0.00021588 0
0 0 0
0 0 0
0.000862488 9.91962e-06 0
0.00204318 -7.91544e-05 0
0.00304831 -0.000266697 0
0.00338453 -0.000552313 0
0.00255967 -0.000936462 0
0.00305136 -0.0168949 0
0.00256558 -0.0294316 0
0.00109404 -0.0293973 0
-0.000349167 -0.0166893 0
-0.000813089 -0.00047536 0
-0.00204623 -0.000182814 0
-0.00208758 1.05466e-05 0
-0.00142895 0.00010555 0
-0.000563385 0.000102122 0
0 0 0
      </DataArray> 
      <DataArray type="Float64" NumberOfComponents="3" Name="Velocity" format="ascii">
0 0 0
0 0 0
0 0 0
0 0 0
0 0 0
0 0 0
0 0 0
0 0 0
0 0 0
0 0 0
0 0 0
0 0 0
0 0 0
0 0 0
0 0 0
0 0 0
0 0 0
0 0 0
0 0 0
0 0 0
0 0 0
0 0 0
0 0 0
0 0 0
0 0 0
0 0 0
0 0 0
0 0 0
0 0 0
0 0 0
0 0 0
0 0 0
0 0 0
0 0 0
0 0 0
0 0 0
      </DataArray> 
      <DataArray type="Float64" NumberOfComponents="3" Name="Acceleration" format="ascii">
0 0 0
0 0 0
0 0 0
0 0 0
0 0 0
0 0 0
0 0 0
0 0 0
0 0 0
0 0 0
0 0 0
0 0 0
0 0 0
0 0 0
0 0 0
0 0 0
0 0 0
0 0 0
0 0 0
0 0 0
0 0 0
0 0 0
0 0 0
0 0 0
0 0 0
0 0 0
0 0 0
0 0 0
0 0 0
0 0 0
0 0 0
0 0 0
0 0 0
0 0 0
0 0 0
0 0 0
      </DataArray> 
    </PointData>
    <CellData>
    </CellData>
  </Piece>
  </UnstructuredGrid>
</VTKFile>
