<?xml version="1.0"?>
<VTKFile type="UnstructuredGrid">
  <UnstructuredGrid>
  <Piece NumberOfPoints="36"  NumberOfCells="69">
    <Points>
      <DataArray type="Float64" NumberOfComponents="3" format="ascii">
0 0 0
-0.000347544 0.999933 0
-0.000867731 1.99993 0
-0.00126519 2.99998 0
-0.0012446 4.00009 0
-0.000474424 5.00026 0
0.0018283 6.00025 0
0.401828 5.99954 0
3.40202 5.99009 0
6.40163 5.98243 0
9.40068 5.98234 0
12.3997 5.98984 0
15.3993 5.99937 0
15.7994 6.00011 0
15.8015 4.99994 0
15.802 3.99984 0
15.8018 2.99979 0
15.8012 1.9998 0
15.8005 0.999871 0
15.8 0 0
15.4 0 0
15.4005 1.00001 0
15.4012 1.99995 0
15.4018 2.99984 0
15.402 3.99967 0
15.4015 4.99944 0
12.4018 4.9899 0
9.40153 4.98241 0
6.40065 4.98243 0
3.39979 4.99003 0
0.399498 4.99972 0
0.398765 3.99989 0
0.398744 3.00001 0
0.399142 2.00006 0
0.399662 1.00006 0
0.4 0 0
      </DataArray>
    </Points>
    <Cells>
      <DataArray type="Int32" Name="connectivity" format="ascii">
0 1
1 2
2 3
3 4
4 5
5 6
6 7
7 8
8 9
9 10
10 11
11 12
12 13
13 14
14 15
15 16
16 17
17 18
18 19
19 20
20 21
21 22
22 23
23 24
24 25
25 26
26 27
27 28
28 29
29 30
30 31
31 32
32 33
33 34
34 35
0 35
0 34
1 34
1 33
2 33
2 32
3 32
3 31
4 31
4 30
5 30
5 7
30 7
30 8
29 8
29 9
28 9
28 10
27 10
27 11
26 11
26 12
25 12
25 13
25 14
24 14
24 15
23 15
23 16
22 16
22 17
21 17
21 18
20 18
      </DataArray>
      <DataArray type="Int32" Name="offsets" format="ascii">
2
4
6
8
10
12
14
16
18
20
22
24
26
28
30
32
34
36
38
40
42
44
46
48
50
52
54
56
58
60
62
64
66
68
70
72
74
76
78
80
82
84
86
88
90
92
94
96
98
100
102
104
106
108
110
112
114
116
118
120
122
124
126
128
130
132
134
136
138
      </DataArray>
      <DataArray type="UInt8" Name="types" format="ascii">
4
4
4
4
4
4
4
4
4
4
4
4
4
4
4
4
4
4
4
4
4
4
4
4
4
4
4
4
4
4
4
4
4
4
4
4
4
4
4
4
4
4
4
4
4
4
4
4
4
4
4
4
4
4
4
4
4
4
4
4
4
4
4
4
4
4
4
4
4
      </DataArray>
    </Cells>
    <PointData>
      <DataArray type="Float64" NumberOfComponents="3" Name="Displacement" format="ascii">
0 0 0
-0.000347544 -6.65592e-05 0
-0.000867731 -7.41503e-05 0
-0.00126519 -2.26755e-05 0
-0.0012446 8.78068e-05 0
-0.000474424 0.000256809 0
0.0018283 0.000254158 0
0.00182767 -0.000455327 0
0.00201598 -0.00991214 0
0.0016328 -0.0175718 0
0.00068231 -0.0176568 0
-0.000278246 -0.0101637 0
-0.000669401 -0.000625613 0
-0.000643549 0.000106926 0
0.00153624 -5.64309e-05 0
0.00202564 -0.000163203 0
0.00182048 -0.000211109 0
0.00121595 -0.000199811 0
0.000507475 -0.000129371 0
0 0 0
0 0 0
0.00051695 6.2558e-06 0
0.00122543 -4.66747e-05 0
0.00182994 -0.000158603 0
0.00203514 -0.000329387 0
0.00154609 -0.000559188 0
0.00183055 -0.0100975 0
0.00153438 -0.0175918 0
0.000654609 -0.0175707 0
-0.000214685 -0.00997362 0
-0.000501995 -0.000283105 0
-0.00123526 -0.000108301 0
-0.00125577 7.25369e-06 0
-0.000858312 6.38516e-05 0
-0.000338123 6.14652e-05 0
0 0 0
      </DataArray> 
      <DataArray type="Float64" NumberOfComponents="3" Name="Velocity" format="ascii">
0 0 0
0 0 0
0 0 0
0 0 0
0 0 0
0 0 0
0 0 0
0 0 0
0 0 0
0 0 0
0 0 0
0 0 0
0 0 0
0 0 0
0 0 0
0 0 0
0 0 0
0 0 0
0 0 0
0 0 0
0 0 0
0 0 0
0 0 0
0 0 0
0 0 0
0 0 0
0 0 0
0 0 0
0 0 0
0 0 0
0 0 0
0 0 0
0 0 0
0 0 0
0 0 0
0 0 0
      </DataArray> 
      <DataArray type="Float64" NumberOfComponents="3" Name="Acceleration" format="ascii">
0 0 0
0 0 0
0 0 0
0 0 0
0 0 0
0 0 0
0 0 0
0 0 0
0 0 0
0 0 0
0 0 0
0 0 0
0 0 0
0 0 0
0 0 0
0 0 0
0 0 0
0 0 0
0 0 0
0 0 0
0 0 0
0 0 0
0 0 0
0 0 0
0 0 0
0 0 0
0 0 0
0 0 0
0 0 0
0 0 0
0 0 0
0 0 0
0 0 0
0 0 0
0 0 0
0 0 0
      </DataArray> 
    </PointData>
    <CellData>
    </CellData>
  </Piece>
  </UnstructuredGrid>
</VTKFile>
