<?xml version="1.0"?>
<VTKFile type="UnstructuredGrid">
  <UnstructuredGrid>
  <Piece NumberOfPoints="36"  NumberOfCells="69">
    <Points>
      <DataArray type="Float64" NumberOfComponents="3" format="ascii">
0 0 0
-0.000987528 0.999811 0
-0.00245992 1.99979 0
-0.00357188 2.99994 0
-0.00347851 4.00026 0
-0.00123328 5.00074 0
0.00539071 6.00071 0
0.405385 5.99867 0
3.40584 5.97148 0
6.40469 5.94949 0
9.40196 5.94925 0
12.3991 5.97077 0
15.3979 5.99818 0
15.798 6.0003 0
15.8043 4.99984 0
15.8057 3.99954 0
15.8052 2.9994 0
15.8035 1.99943 0
15.8014 0.999631 0
15.8 0 0
15.4 0 0
15.4015 1.00002 0
15.4035 1.99986 0
15.4052 2.99954 0
15.4058 3.99905 0
15.4043 4.99839 0
12.4052 4.97097 0
9.4044 4.94944 0
6.40188 4.9495 0
3.39943 4.97132 0
0.398685 4.99918 0
0.396548 3.99968 0
0.396455 3.00001 0
0.397567 2.00018 0
0.399039 1.00017 0
0.4 0 0
      </DataArray>
    </Points>
    <Cells>
      <DataArray type="Int32" Name="connectivity" format="ascii">
0 1
1 2
2 3
3 4
4 5
5 6
6 7
7 8
8 9
9 10
10 11
11 12
12 13
13 14
14 15
15 16
16 17
17 18
18 19
19 20
20 21
21 22
22 23
23 24
24 25
25 26
26 27
27 28
28 29
29 30
30 31
31 32
32 33
33 34
34 35
0 35
0 34
1 34
1 33
2 33
2 32
3 32
3 31
4 31
4 30
5 30
5 7
30 7
30 8
29 8
29 9
28 9
28 10
27 10
27 11
26 11
26 12
25 12
25 13
25 14
24 14
24 15
23 15
23 16
22 16
22 17
21 17
21 18
20 18
      </DataArray>
      <DataArray type="Int32" Name="offsets" format="ascii">
2
4
6
8
10
12
14
16
18
20
22
24
26
28
30
32
34
36
38
40
42
44
46
48
50
52
54
56
58
60
62
64
66
68
70
72
74
76
78
80
82
84
86
88
90
92
94
96
98
100
102
104
106
108
110
112
114
116
118
120
122
124
126
128
130
132
134
136
138
      </DataArray>
      <DataArray type="UInt8" Name="types" format="ascii">
4
4
4
4
4
4
4
4
4
4
4
4
4
4
4
4
4
4
4
4
4
4
4
4
4
4
4
4
4
4
4
4
4
4
4
4
4
4
4
4
4
4
4
4
4
4
4
4
4
4
4
4
4
4
4
4
4
4
4
4
4
4
4
4
4
4
4
4
4
      </DataArray>
    </Cells>
    <PointData>
      <DataArray type="Float64" NumberOfComponents="3" Name="Displacement" format="ascii">
0 0 0
-0.000987528 -0.000188881 0
-0.00245992 -0.000209558 0
-0.00357188 -6.12472e-05 0
-0.00347851 0.000255536 0
-0.00123328 0.00073674 0
0.00539071 0.000714802 0
0.00538549 -0.00132972 0
0.00584322 -0.0285161 0
0.00468859 -0.0505116 0
0.00195562 -0.0507495 0
-0.000855696 -0.0292288 0
-0.00206224 -0.00181591 0
-0.00199194 0.000296659 0
0.00428394 -0.000157612 0
0.00572421 -0.000463396 0
0.00516871 -0.000601907 0
0.00346105 -0.00057032 0
0.00144706 -0.000369115 0
0 0 0
0 0 0
0.00147429 1.53694e-05 0
0.00348833 -0.00013922 0
0.00519582 -0.000462229 0
0.0057517 -0.000952514 0
0.00431429 -0.00161146 0
0.0052073 -0.0290265 0
0.00440265 -0.0505572 0
0.00187591 -0.0505018 0
-0.000569139 -0.0286785 0
-0.00131467 -0.000821838 0
-0.00345244 -0.000318994 0
-0.00354508 1.3273e-05 0
-0.00243313 0.000177422 0
-0.000960729 0.000173252 0
0 0 0
      </DataArray> 
      <DataArray type="Float64" NumberOfComponents="3" Name="Velocity" format="ascii">
0 0 0
0 0 0
0 0 0
0 0 0
0 0 0
0 0 0
0 0 0
0 0 0
0 0 0
0 0 0
0 0 0
0 0 0
0 0 0
0 0 0
0 0 0
0 0 0
0 0 0
0 0 0
0 0 0
0 0 0
0 0 0
0 0 0
0 0 0
0 0 0
0 0 0
0 0 0
0 0 0
0 0 0
0 0 0
0 0 0
0 0 0
0 0 0
0 0 0
0 0 0
0 0 0
0 0 0
      </DataArray> 
      <DataArray type="Float64" NumberOfComponents="3" Name="Acceleration" format="ascii">
0 0 0
0 0 0
0 0 0
0 0 0
0 0 0
0 0 0
0 0 0
0 0 0
0 0 0
0 0 0
0 0 0
0 0 0
0 0 0
0 0 0
0 0 0
0 0 0
0 0 0
0 0 0
0 0 0
0 0 0
0 0 0
0 0 0
0 0 0
0 0 0
0 0 0
0 0 0
0 0 0
0 0 0
0 0 0
0 0 0
0 0 0
0 0 0
0 0 0
0 0 0
0 0 0
0 0 0
      </DataArray> 
    </PointData>
    <CellData>
    </CellData>
  </Piece>
  </UnstructuredGrid>
</VTKFile>
