<?xml version="1.0"?>
<VTKFile type="UnstructuredGrid">
  <UnstructuredGrid>
  <Piece NumberOfPoints="36"  NumberOfCells="69">
    <Points>
      <DataArray type="Float64" NumberOfComponents="3" format="ascii">
0 0 0
-0.00071356 0.999863 0
-0.00177926 1.99985 0
-0.0025882 2.99995 0
-0.00253165 4.00018 0
-0.000927111 5.00053 0
0.00383387 6.00052 0
0.403831 5.99905 0
3.40419 5.97951 0
6.40337 5.96368 0
9.40141 5.96351 0
12.3994 5.97899 0
15.3986 5.9987 0
15.7986 6.00022 0
15.8031 4.99989 0
15.8041 3.99967 0
15.8037 2.99957 0
15.8025 1.99959 0
15.801 0.999734 0
15.8 0 0
15.4 0 0
15.4011 1.00001 0
15.4025 1.9999 0
15.4038 2.99967 0
15.4042 3.99932 0
15.4031 4.99884 0
12.4038 4.97913 0
9.40317 4.96365 0
6.40135 4.96369 0
3.39958 4.97938 0
0.399015 4.99941 0
0.397487 3.99977 0
0.397431 3.00001 0
0.39824 2.00013 0
0.399306 1.00013 0
0.4 0 0
      </DataArray>
    </Points>
    <Cells>
      <DataArray type="Int32" Name="connectivity" format="ascii">
0 1
1 2
2 3
3 4
4 5
5 6
6 7
7 8
8 9
9 10
10 11
11 12
12 13
13 14
14 15
15 16
16 17
17 18
18 19
19 20
20 21
21 22
22 23
23 24
24 25
25 26
26 27
27 28
28 29
29 30
30 31
31 32
32 33
33 34
34 35
0 35
0 34
1 34
1 33
2 33
2 32
3 32
3 31
4 31
4 30
5 30
5 7
30 7
30 8
29 8
29 9
28 9
28 10
27 10
27 11
26 11
26 12
25 12
25 13
25 14
24 14
24 15
23 15
23 16
22 16
22 17
21 17
21 18
20 18
      </DataArray>
      <DataArray type="Int32" Name="offsets" format="ascii">
2
4
6
8
10
12
14
16
18
20
22
24
26
28
30
32
34
36
38
40
42
44
46
48
50
52
54
56
58
60
62
64
66
68
70
72
74
76
78
80
82
84
86
88
90
92
94
96
98
100
102
104
106
108
110
112
114
116
118
120
122
124
126
128
130
132
134
136
138
      </DataArray>
      <DataArray type="UInt8" Name="types" format="ascii">
4
4
4
4
4
4
4
4
4
4
4
4
4
4
4
4
4
4
4
4
4
4
4
4
4
4
4
4
4
4
4
4
4
4
4
4
4
4
4
4
4
4
4
4
4
4
4
4
4
4
4
4
4
4
4
4
4
4
4
4
4
4
4
4
4
4
4
4
4
      </DataArray>
    </Cells>
    <PointData>
      <DataArray type="Float64" NumberOfComponents="3" Name="Displacement" format="ascii">
0 0 0
-0.00071356 -0.000136558 0
-0.00177926 -0.000151782 0
-0.0025882 -4.52617e-05 0
-0.00253165 0.000182745 0
-0.000927111 0.000530148 0
0.00383387 0.000518815 0
0.00383117 -0.00094956 0
0.00418616 -0.020495 0
0.00337248 -0.036316 0
0.00140779 -0.0364891 0
-0.000597926 -0.0210106 0
-0.00143994 -0.00130014 0
-0.00138815 0.000216605 0
0.00312092 -0.00011475 0
0.00414606 -0.000334958 0
0.00373606 -0.000434292 0
0.00249899 -0.000411301 0
0.00104401 -0.00026624 0
0 0 0
0 0 0
0.00106359 1.18583e-05 0
0.00251859 -9.85352e-05 0
0.00375558 -0.000330382 0
0.00416576 -0.000683081 0
0.00314211 -0.00115734 0
0.00376082 -0.0208689 0
0.00316783 -0.0363525 0
0.0013505 -0.036311 0
-0.000424052 -0.0206162 0
-0.000984967 -0.000588383 0
-0.00251267 -0.000226974 0
-0.00256884 1.1883e-05 0
-0.00175991 0.000129453 0
-0.000694206 0.000125624 0
0 0 0
      </DataArray> 
      <DataArray type="Float64" NumberOfComponents="3" Name="Velocity" format="ascii">
0 0 0
0 0 0
0 0 0
0 0 0
0 0 0
0 0 0
0 0 0
0 0 0
0 0 0
0 0 0
0 0 0
0 0 0
0 0 0
0 0 0
0 0 0
0 0 0
0 0 0
0 0 0
0 0 0
0 0 0
0 0 0
0 0 0
0 0 0
0 0 0
0 0 0
0 0 0
0 0 0
0 0 0
0 0 0
0 0 0
0 0 0
0 0 0
0 0 0
0 0 0
0 0 0
0 0 0
      </DataArray> 
      <DataArray type="Float64" NumberOfComponents="3" Name="Acceleration" format="ascii">
0 0 0
0 0 0
0 0 0
0 0 0
0 0 0
0 0 0
0 0 0
0 0 0
0 0 0
0 0 0
0 0 0
0 0 0
0 0 0
0 0 0
0 0 0
0 0 0
0 0 0
0 0 0
0 0 0
0 0 0
0 0 0
0 0 0
0 0 0
0 0 0
0 0 0
0 0 0
0 0 0
0 0 0
0 0 0
0 0 0
0 0 0
0 0 0
0 0 0
0 0 0
0 0 0
0 0 0
      </DataArray> 
    </PointData>
    <CellData>
    </CellData>
  </Piece>
  </UnstructuredGrid>
</VTKFile>
