<?xml version="1.0"?>
<VTKFile type="UnstructuredGrid">
  <UnstructuredGrid>
  <Piece NumberOfPoints="36"  NumberOfCells="69">
    <Points>
      <DataArray type="Float64" NumberOfComponents="3" format="ascii">
0 0 0
-0.000313132 0.99994 0
-0.000781907 1.99993 0
-0.0011403 2.99998 0
-0.00112233 4.00008 0
-0.000429359 5.00023 0
0.00164401 6.00023 0
0.401644 5.99959 0
3.40181 5.99108 0
6.40147 5.98418 0
9.40061 5.9841 0
12.3998 5.99085 0
15.3994 5.99944 0
15.7994 6.0001 0
15.8014 4.99995 0
15.8018 3.99985 0
15.8016 2.99981 0
15.8011 1.99982 0
15.8005 0.999883 0
15.8 0 0
15.4 0 0
15.4005 1.00001 0
15.4011 1.99996 0
15.4016 2.99986 0
15.4018 3.9997 0
15.4014 4.9995 0
12.4016 4.99091 0
9.40138 4.98416 0
6.40059 4.98418 0
3.39981 4.99102 0
0.399546 4.99975 0
0.398886 3.9999 0
0.398868 3.00001 0
0.399227 2.00006 0
0.399695 1.00006 0
0.4 0 0
      </DataArray>
    </Points>
    <Cells>
      <DataArray type="Int32" Name="connectivity" format="ascii">
0 1
1 2
2 3
3 4
4 5
5 6
6 7
7 8
8 9
9 10
10 11
11 12
12 13
13 14
14 15
15 16
16 17
17 18
18 19
19 20
20 21
21 22
22 23
23 24
24 25
25 26
26 27
27 28
28 29
29 30
30 31
31 32
32 33
33 34
34 35
0 35
0 34
1 34
1 33
2 33
2 32
3 32
3 31
4 31
4 30
5 30
5 7
30 7
30 8
29 8
29 9
28 9
28 10
27 10
27 11
26 11
26 12
25 12
25 13
25 14
24 14
24 15
23 15
23 16
22 16
22 17
21 17
21 18
20 18
      </DataArray>
      <DataArray type="Int32" Name="offsets" format="ascii">
2
4
6
8
10
12
14
16
18
20
22
24
26
28
30
32
34
36
38
40
42
44
46
48
50
52
54
56
58
60
62
64
66
68
70
72
74
76
78
80
82
84
86
88
90
92
94
96
98
100
102
104
106
108
110
112
114
116
118
120
122
124
126
128
130
132
134
136
138
      </DataArray>
      <DataArray type="UInt8" Name="types" format="ascii">
4
4
4
4
4
4
4
4
4
4
4
4
4
4
4
4
4
4
4
4
4
4
4
4
4
4
4
4
4
4
4
4
4
4
4
4
4
4
4
4
4
4
4
4
4
4
4
4
4
4
4
4
4
4
4
4
4
4
4
4
4
4
4
4
4
4
4
4
4
      </DataArray>
    </Cells>
    <PointData>
      <DataArray type="Float64" NumberOfComponents="3" Name="Displacement" format="ascii">
0 0 0
-0.000313132 -5.99727e-05 0
-0.000781907 -6.68267e-05 0
-0.0011403 -2.04825e-05 0
-0.00112233 7.90128e-05 0
-0.000429359 0.000231264 0
0.00164401 0.000229115 0
0.0016435 -0.000409645 0
0.00181445 -0.00892484 0
0.00147031 -0.0158222 0
0.000614471 -0.0158989 0
-0.000249611 -0.0091515 0
-0.000600452 -0.00056303 0
-0.000577109 9.64579e-05 0
0.00138548 -5.08881e-05 0
0.00182559 -0.000147048 0
0.00164029 -0.00019017 0
0.00109545 -0.000179983 0
0.000457143 -0.000116536 0
0 0 0
0 0 0
0.000465674 5.67656e-06 0
0.00110399 -4.19428e-05 0
0.00164881 -0.000142705 0
0.00183415 -0.000296495 0
0.00139432 -0.000503444 0
0.0016492 -0.00909211 0
0.00138174 -0.0158405 0
0.000589529 -0.0158213 0
-0.000194109 -0.00898043 0
-0.000454148 -0.000254784 0
-0.00111391 -9.73889e-05 0
-0.00113181 6.65834e-06 0
-0.000773421 5.75965e-05 0
-0.000304644 5.54026e-05 0
0 0 0
      </DataArray> 
      <DataArray type="Float64" NumberOfComponents="3" Name="Velocity" format="ascii">
0 0 0
0 0 0
0 0 0
0 0 0
0 0 0
0 0 0
0 0 0
0 0 0
0 0 0
0 0 0
0 0 0
0 0 0
0 0 0
0 0 0
0 0 0
0 0 0
0 0 0
0 0 0
0 0 0
0 0 0
0 0 0
0 0 0
0 0 0
0 0 0
0 0 0
0 0 0
0 0 0
0 0 0
0 0 0
0 0 0
0 0 0
0 0 0
0 0 0
0 0 0
0 0 0
0 0 0
      </DataArray> 
      <DataArray type="Float64" NumberOfComponents="3" Name="Acceleration" format="ascii">
0 0 0
0 0 0
0 0 0
0 0 0
0 0 0
0 0 0
0 0 0
0 0 0
0 0 0
0 0 0
0 0 0
0 0 0
0 0 0
0 0 0
0 0 0
0 0 0
0 0 0
0 0 0
0 0 0
0 0 0
0 0 0
0 0 0
0 0 0
0 0 0
0 0 0
0 0 0
0 0 0
0 0 0
0 0 0
0 0 0
0 0 0
0 0 0
0 0 0
0 0 0
0 0 0
0 0 0
      </DataArray> 
    </PointData>
    <CellData>
    </CellData>
  </Piece>
  </UnstructuredGrid>
</VTKFile>
