<?xml version="1.0"?>
<VTKFile type="UnstructuredGrid">
  <UnstructuredGrid>
  <Piece NumberOfPoints="36"  NumberOfCells="69">
    <Points>
      <DataArray type="Float64" NumberOfComponents="3" format="ascii">
0 0 0
-0.000615417 0.999882 0
-0.00153508 1.99987 0
-0.00223442 2.99996 0
-0.00218899 4.00016 0
-0.000810562 5.00046 0
0.00328786 6.00045 0
0.403286 5.99918 0
3.4036 5.98236 0
6.4029 5.96873 0
9.40121 5.96858 0
12.3995 5.98191 0
15.3988 5.99888 0
15.7988 6.00019 0
15.8027 4.9999 0
15.8036 3.99971 0
15.8032 2.99963 0
15.8022 1.99965 0
15.8009 0.999771 0
15.8 0 0
15.4 0 0
15.4009 1.00001 0
15.4022 1.99992 0
15.4032 2.99972 0
15.4036 3.99941 0
15.4027 4.999 0
12.4032 4.98203 0
9.40273 4.9687 0
6.40116 4.96874 0
3.39963 4.98225 0
0.39914 4.99949 0
0.397827 3.99981 0
0.397782 3.00001 0
0.398482 2.00011 0
0.399401 1.00011 0
0.4 0 0
      </DataArray>
    </Points>
    <Cells>
      <DataArray type="Int32" Name="connectivity" format="ascii">
0 1
1 2
2 3
3 4
4 5
5 6
6 7
7 8
8 9
9 10
10 11
11 12
12 13
13 14
14 15
15 16
16 17
17 18
18 19
19 20
20 21
21 22
22 23
23 24
24 25
25 26
26 27
27 28
28 29
29 30
30 31
31 32
32 33
33 34
34 35
0 35
0 34
1 34
1 33
2 33
2 32
3 32
3 31
4 31
4 30
5 30
5 7
30 7
30 8
29 8
29 9
28 9
28 10
27 10
27 11
26 11
26 12
25 12
25 13
25 14
24 14
24 15
23 15
23 16
22 16
22 17
21 17
21 18
20 18
      </DataArray>
      <DataArray type="Int32" Name="offsets" format="ascii">
2
4
6
8
10
12
14
16
18
20
22
24
26
28
30
32
34
36
38
40
42
44
46
48
50
52
54
56
58
60
62
64
66
68
70
72
74
76
78
80
82
84
86
88
90
92
94
96
98
100
102
104
106
108
110
112
114
116
118
120
122
124
126
128
130
132
134
136
138
      </DataArray>
      <DataArray type="UInt8" Name="types" format="ascii">
4
4
4
4
4
4
4
4
4
4
4
4
4
4
4
4
4
4
4
4
4
4
4
4
4
4
4
4
4
4
4
4
4
4
4
4
4
4
4
4
4
4
4
4
4
4
4
4
4
4
4
4
4
4
4
4
4
4
4
4
4
4
4
4
4
4
4
4
4
      </DataArray>
    </Cells>
    <PointData>
      <DataArray type="Float64" NumberOfComponents="3" Name="Displacement" format="ascii">
0 0 0
-0.000615417 -0.000117799 0
-0.00153508 -0.000131015 0
-0.00223442 -3.93406e-05 0
-0.00218899 0.000157033 0
-0.000810562 0.00045656 0
0.00328786 0.000448162 0
0.00328587 -0.000815525 0
0.00359942 -0.0176426 0
0.00290394 -0.0312655 0
0.00121255 -0.0314151 0
-0.000509471 -0.0180875 0
-0.00122659 -0.00111767 0
-0.00118162 0.000187498 0
0.00269943 -9.92286e-05 0
0.00357882 -0.00028892 0
0.0032226 -0.000374364 0
0.0021547 -0.000354485 0
0.000899929 -0.000229477 0
0 0 0
0 0 0
0.000916787 1.04572e-05 0
0.00217158 -8.43526e-05 0
0.00323941 -0.000283836 0
0.00359577 -0.000587546 0
0.00271748 -0.000996006 0
0.00324299 -0.0179666 0
0.00272804 -0.0312981 0
0.00116324 -0.0312618 0
-0.000369634 -0.0177483 0
-0.000860168 -0.000505794 0
-0.00217258 -0.00019468 0
-0.00221773 1.09497e-05 0
-0.0015184 0.000112031 0
-0.000598728 0.00010848 0
0 0 0
      </DataArray> 
      <DataArray type="Float64" NumberOfComponents="3" Name="Velocity" format="ascii">
0 0 0
0 0 0
0 0 0
0 0 0
0 0 0
0 0 0
0 0 0
0 0 0
0 0 0
0 0 0
0 0 0
0 0 0
0 0 0
0 0 0
0 0 0
0 0 0
0 0 0
0 0 0
0 0 0
0 0 0
0 0 0
0 0 0
0 0 0
0 0 0
0 0 0
0 0 0
0 0 0
0 0 0
0 0 0
0 0 0
0 0 0
0 0 0
0 0 0
0 0 0
0 0 0
0 0 0
      </DataArray> 
      <DataArray type="Float64" NumberOfComponents="3" Name="Acceleration" format="ascii">
0 0 0
0 0 0
0 0 0
0 0 0
0 0 0
0 0 0
0 0 0
0 0 0
0 0 0
0 0 0
0 0 0
0 0 0
0 0 0
0 0 0
0 0 0
0 0 0
0 0 0
0 0 0
0 0 0
0 0 0
0 0 0
0 0 0
0 0 0
0 0 0
0 0 0
0 0 0
0 0 0
0 0 0
0 0 0
0 0 0
0 0 0
0 0 0
0 0 0
0 0 0
0 0 0
0 0 0
      </DataArray> 
    </PointData>
    <CellData>
    </CellData>
  </Piece>
  </UnstructuredGrid>
</VTKFile>
