<?xml version="1.0"?>
<VTKFile type="UnstructuredGrid">
  <UnstructuredGrid>
  <Piece NumberOfPoints="36"  NumberOfCells="69">
    <Points>
      <DataArray type="Float64" NumberOfComponents="3" format="ascii">
0 0 0
-0.000222667 0.999957 0
-0.000556188 1.99995 0
-0.000811579 2.99999 0
-0.000799876 4.00006 0
-0.000308869 5.00016 0
0.00116299 6.00016 0
0.401163 5.99971 0
3.40129 5.99366 0
6.40104 5.98877 0
9.40044 5.98871 0
12.3998 5.9935 0
15.3996 5.9996 0
15.7996 6.00007 0
15.801 4.99996 0
15.8013 3.9999 0
15.8012 2.99986 0
15.8008 1.99987 0
15.8003 0.999917 0
15.8 0 0
15.4 0 0
15.4003 1 0
15.4008 1.99997 0
15.4012 2.9999 0
15.4013 3.99979 0
15.401 4.99964 0
12.4012 4.99355 0
9.40098 4.98875 0
6.40042 4.98877 0
3.39986 4.99362 0
0.399674 4.99982 0
0.399206 3.99993 0
0.399194 3 0
0.39945 2.00004 0
0.399783 1.00004 0
0.4 0 0
      </DataArray>
    </Points>
    <Cells>
      <DataArray type="Int32" Name="connectivity" format="ascii">
0 1
1 2
2 3
3 4
4 5
5 6
6 7
7 8
8 9
9 10
10 11
11 12
12 13
13 14
14 15
15 16
16 17
17 18
18 19
19 20
20 21
21 22
22 23
23 24
24 25
25 26
26 27
27 28
28 29
29 30
30 31
31 32
32 33
33 34
34 35
0 35
0 34
1 34
1 33
2 33
2 32
3 32
3 31
4 31
4 30
5 30
5 7
30 7
30 8
29 8
29 9
28 9
28 10
27 10
27 11
26 11
26 12
25 12
25 13
25 14
24 14
24 15
23 15
23 16
22 16
22 17
21 17
21 18
20 18
      </DataArray>
      <DataArray type="Int32" Name="offsets" format="ascii">
2
4
6
8
10
12
14
16
18
20
22
24
26
28
30
32
34
36
38
40
42
44
46
48
50
52
54
56
58
60
62
64
66
68
70
72
74
76
78
80
82
84
86
88
90
92
94
96
98
100
102
104
106
108
110
112
114
116
118
120
122
124
126
128
130
132
134
136
138
      </DataArray>
      <DataArray type="UInt8" Name="types" format="ascii">
4
4
4
4
4
4
4
4
4
4
4
4
4
4
4
4
4
4
4
4
4
4
4
4
4
4
4
4
4
4
4
4
4
4
4
4
4
4
4
4
4
4
4
4
4
4
4
4
4
4
4
4
4
4
4
4
4
4
4
4
4
4
4
4
4
4
4
4
4
      </DataArray>
    </Cells>
    <PointData>
      <DataArray type="Float64" NumberOfComponents="3" Name="Displacement" format="ascii">
0 0 0
-0.000222667 -4.26536e-05 0
-0.000556188 -4.75543e-05 0
-0.000811579 -1.46618e-05 0
-0.000799876 5.60002e-05 0
-0.000308869 0.000164233 0
0.00116299 0.00016315 0
0.00116273 -0.000290184 0
0.00128668 -0.00633552 0
0.00104402 -0.011233 0
0.000436426 -0.0112877 0
-0.000175478 -0.00649676 0
-0.000422015 -0.000399182 0
-0.000405318 6.88127e-05 0
0.000987728 -3.62694e-05 0
0.00129915 -0.000104572 0
0.00116653 -0.000135163 0
0.000778784 -0.000127904 0
0.000324915 -8.28208e-05 0
0 0 0
0 0 0
0.000330972 4.1114e-06 0
0.000784843 -2.96198e-05 0
0.00117258 -0.000101116 0
0.00130521 -0.00021032 0
0.000993937 -0.000357296 0
0.00117256 -0.00645497 0
0.000981226 -0.0112464 0
0.000418721 -0.0112326 0
-0.000139297 -0.00637543 0
-0.000326403 -0.000180637 0
-0.000793876 -6.89024e-05 0
-0.000805544 4.96366e-06 0
-0.000550154 4.10818e-05 0
-0.000216633 3.94401e-05 0
0 0 0
      </DataArray> 
      <DataArray type="Float64" NumberOfComponents="3" Name="Velocity" format="ascii">
0 0 0
0 0 0
0 0 0
0 0 0
0 0 0
0 0 0
0 0 0
0 0 0
0 0 0
0 0 0
0 0 0
0 0 0
0 0 0
0 0 0
0 0 0
0 0 0
0 0 0
0 0 0
0 0 0
0 0 0
0 0 0
0 0 0
0 0 0
0 0 0
0 0 0
0 0 0
0 0 0
0 0 0
0 0 0
0 0 0
0 0 0
0 0 0
0 0 0
0 0 0
0 0 0
0 0 0
      </DataArray> 
      <DataArray type="Float64" NumberOfComponents="3" Name="Acceleration" format="ascii">
0 0 0
0 0 0
0 0 0
0 0 0
0 0 0
0 0 0
0 0 0
0 0 0
0 0 0
0 0 0
0 0 0
0 0 0
0 0 0
0 0 0
0 0 0
0 0 0
0 0 0
0 0 0
0 0 0
0 0 0
0 0 0
0 0 0
0 0 0
0 0 0
0 0 0
0 0 0
0 0 0
0 0 0
0 0 0
0 0 0
0 0 0
0 0 0
0 0 0
0 0 0
0 0 0
0 0 0
      </DataArray> 
    </PointData>
    <CellData>
    </CellData>
  </Piece>
  </UnstructuredGrid>
</VTKFile>
