<?xml version="1.0"?>
<VTKFile type="UnstructuredGrid">
  <UnstructuredGrid>
  <Piece NumberOfPoints="36"  NumberOfCells="69">
    <Points>
      <DataArray type="Float64" NumberOfComponents="3" format="ascii">
0 0 0
-7.14654e-05 0.999986 0
-0.000178602 1.99998 0
-0.000260856 3 0
-0.000257674 4.00002 0
-0.000101022 5.00005 0
0.000370035 6.00005 0
0.40037 5.99991 0
3.40041 5.99797 0
6.40033 5.9964 0
9.40014 5.99639 0
12.3999 5.99792 0
15.3999 5.99987 0
15.7999 6.00002 0
15.8003 4.99999 0
15.8004 3.99997 0
15.8004 2.99996 0
15.8002 1.99996 0
15.8001 0.999973 0
15.8 0 0
15.4 0 0
15.4001 1 0
15.4003 1.99999 0
15.4004 2.99997 0
15.4004 3.99993 0
15.4003 4.99989 0
12.4004 4.99793 0
9.40031 4.9964 0
6.40013 4.9964 0
3.39995 4.99796 0
0.399893 4.99994 0
0.399744 3.99998 0
0.399741 3 0
0.399823 2.00001 0
0.39993 1.00001 0
0.4 0 0
      </DataArray>
    </Points>
    <Cells>
      <DataArray type="Int32" Name="connectivity" format="ascii">
0 1
1 2
2 3
3 4
4 5
5 6
6 7
7 8
8 9
9 10
10 11
11 12
12 13
13 14
14 15
15 16
16 17
17 18
18 19
19 20
20 21
21 22
22 23
23 24
24 25
25 26
26 27
27 28
28 29
29 30
30 31
31 32
32 33
33 34
34 35
0 35
0 34
1 34
1 33
2 33
2 32
3 32
3 31
4 31
4 30
5 30
5 7
30 7
30 8
29 8
29 9
28 9
28 10
27 10
27 11
26 11
26 12
25 12
25 13
25 14
24 14
24 15
23 15
23 16
22 16
22 17
21 17
21 18
20 18
      </DataArray>
      <DataArray type="Int32" Name="offsets" format="ascii">
2
4
6
8
10
12
14
16
18
20
22
24
26
28
30
32
34
36
38
40
42
44
46
48
50
52
54
56
58
60
62
64
66
68
70
72
74
76
78
80
82
84
86
88
90
92
94
96
98
100
102
104
106
108
110
112
114
116
118
120
122
124
126
128
130
132
134
136
138
      </DataArray>
      <DataArray type="UInt8" Name="types" format="ascii">
4
4
4
4
4
4
4
4
4
4
4
4
4
4
4
4
4
4
4
4
4
4
4
4
4
4
4
4
4
4
4
4
4
4
4
4
4
4
4
4
4
4
4
4
4
4
4
4
4
4
4
4
4
4
4
4
4
4
4
4
4
4
4
4
4
4
4
4
4
      </DataArray>
    </Cells>
    <PointData>
      <DataArray type="Float64" NumberOfComponents="3" Name="Displacement" format="ascii">
0 0 0
-7.14654e-05 -1.36935e-05 0
-0.000178602 -1.52805e-05 0
-0.000260856 -4.75693e-06 0
-0.000257674 1.78749e-05 0
-0.000101022 5.25946e-05 0
0.000370035 5.24836e-05 0
0.000370009 -9.25428e-05 0
0.000411066 -0.00202759 0
0.000334269 -0.00359564 0
0.000139794 -0.00361324 0
-5.52452e-05 -0.00207937 0
-0.000132804 -0.000127486 0
-0.000127394 2.22034e-05 0
0.000318349 -1.16846e-05 0
0.00041748 -3.35659e-05 0
0.000374465 -4.33449e-05 0
0.000249852 -4.10074e-05 0
0.000104198 -2.65561e-05 0
0 0 0
0 0 0
0.000106137 1.3594e-06 0
0.000251791 -9.3969e-06 0
0.000376403 -3.2261e-05 0
0.00041942 -6.72267e-05 0
0.000320304 -0.000114301 0
0.000376237 -0.00206619 0
0.00031422 -0.00360011 0
0.000134128 -0.00359561 0
-4.53815e-05 -0.0020406 0
-0.000106599 -5.76885e-05 0
-0.000255741 -2.19276e-05 0
-0.00025892 1.71514e-06 0
-0.000176666 1.32519e-05 0
-6.9529e-05 1.26815e-05 0
0 0 0
      </DataArray> 
      <DataArray type="Float64" NumberOfComponents="3" Name="Velocity" format="ascii">
0 0 0
0 0 0
0 0 0
0 0 0
0 0 0
0 0 0
0 0 0
0 0 0
0 0 0
0 0 0
0 0 0
0 0 0
0 0 0
0 0 0
0 0 0
0 0 0
0 0 0
0 0 0
0 0 0
0 0 0
0 0 0
0 0 0
0 0 0
0 0 0
0 0 0
0 0 0
0 0 0
0 0 0
0 0 0
0 0 0
0 0 0
0 0 0
0 0 0
0 0 0
0 0 0
0 0 0
      </DataArray> 
      <DataArray type="Float64" NumberOfComponents="3" Name="Acceleration" format="ascii">
0 0 0
0 0 0
0 0 0
0 0 0
0 0 0
0 0 0
0 0 0
0 0 0
0 0 0
0 0 0
0 0 0
0 0 0
0 0 0
0 0 0
0 0 0
0 0 0
0 0 0
0 0 0
0 0 0
0 0 0
0 0 0
0 0 0
0 0 0
0 0 0
0 0 0
0 0 0
0 0 0
0 0 0
0 0 0
0 0 0
0 0 0
0 0 0
0 0 0
0 0 0
0 0 0
0 0 0
      </DataArray> 
    </PointData>
    <CellData>
    </CellData>
  </Piece>
  </UnstructuredGrid>
</VTKFile>
