<?xml version="1.0"?>
<VTKFile type="UnstructuredGrid">
  <UnstructuredGrid>
  <Piece NumberOfPoints="36"  NumberOfCells="69">
    <Points>
      <DataArray type="Float64" NumberOfComponents="3" format="ascii">
0 0 0
-0.00074977 0.999857 0
-0.0018693 1.99984 0
-0.00271854 2.99995 0
-0.00265762 4.00019 0
-0.000969205 5.00056 0
0.00403686 6.00054 0
0.404034 5.999 0
3.4044 5.97845 0
6.40355 5.96182 0
9.40148 5.96163 0
12.3994 5.97791 0
15.3985 5.99863 0
15.7985 6.00023 0
15.8033 4.99988 0
15.8044 3.99965 0
15.8039 2.99954 0
15.8026 1.99957 0
15.8011 0.99972 0
15.8 0 0
15.4 0 0
15.4011 1.00001 0
15.4026 1.9999 0
15.4039 2.99965 0
15.4044 3.99928 0
15.4033 4.99878 0
12.404 4.97806 0
9.40333 4.96178 0
6.40142 4.96182 0
3.39956 4.97832 0
0.39897 4.99938 0
0.397362 3.99976 0
0.397302 3.00001 0
0.398151 2.00014 0
0.399271 1.00013 0
0.4 0 0
      </DataArray>
    </Points>
    <Cells>
      <DataArray type="Int32" Name="connectivity" format="ascii">
0 1
1 2
2 3
3 4
4 5
5 6
6 7
7 8
8 9
9 10
10 11
11 12
12 13
13 14
14 15
15 16
16 17
17 18
18 19
19 20
20 21
21 22
22 23
23 24
24 25
25 26
26 27
27 28
28 29
29 30
30 31
31 32
32 33
33 34
34 35
0 35
0 34
1 34
1 33
2 33
2 32
3 32
3 31
4 31
4 30
5 30
5 7
30 7
30 8
29 8
29 9
28 9
28 10
27 10
27 11
26 11
26 12
25 12
25 13
25 14
24 14
24 15
23 15
23 16
22 16
22 17
21 17
21 18
20 18
      </DataArray>
      <DataArray type="Int32" Name="offsets" format="ascii">
2
4
6
8
10
12
14
16
18
20
22
24
26
28
30
32
34
36
38
40
42
44
46
48
50
52
54
56
58
60
62
64
66
68
70
72
74
76
78
80
82
84
86
88
90
92
94
96
98
100
102
104
106
108
110
112
114
116
118
120
122
124
126
128
130
132
134
136
138
      </DataArray>
      <DataArray type="UInt8" Name="types" format="ascii">
4
4
4
4
4
4
4
4
4
4
4
4
4
4
4
4
4
4
4
4
4
4
4
4
4
4
4
4
4
4
4
4
4
4
4
4
4
4
4
4
4
4
4
4
4
4
4
4
4
4
4
4
4
4
4
4
4
4
4
4
4
4
4
4
4
4
4
4
4
      </DataArray>
    </Cells>
    <PointData>
      <DataArray type="Float64" NumberOfComponents="3" Name="Displacement" format="ascii">
0 0 0
-0.00074977 -0.000143478 0
-0.0018693 -0.000159436 0
-0.00271854 -4.74208e-05 0
-0.00265762 0.000192279 0
-0.000969205 0.000557354 0
0.00403686 0.000544824 0
0.00403388 -0.000999298 0
0.00440355 -0.0215502 0
0.00354573 -0.0381841 0
0.00147996 -0.0383657 0
-0.000631076 -0.0220919 0
-0.00151992 -0.00136777 0
-0.00146564 0.000227287 0
0.00327579 -0.000120455 0
0.00435509 -0.00035194 0
0.00392548 -0.000456419 0
0.00262606 -0.000432283 0
0.00109721 -0.000279816 0
0 0 0
0 0 0
0.00111779 1.23563e-05 0
0.00264667 -0.00010382 0
0.003946 -0.000347646 0
0.00437582 -0.00071846 0
0.00329816 -0.00121704 0
0.00395192 -0.0219424 0
0.00333043 -0.0382219 0
0.00141972 -0.0381785 0
-0.000443808 -0.021677 0
-0.00103013 -0.000618993 0
-0.0026377 -0.000238978 0
-0.0026982 1.21697e-05 0
-0.00184897 0.000135849 0
-0.000729433 0.000131939 0
0 0 0
      </DataArray> 
      <DataArray type="Float64" NumberOfComponents="3" Name="Velocity" format="ascii">
0 0 0
0 0 0
0 0 0
0 0 0
0 0 0
0 0 0
0 0 0
0 0 0
0 0 0
0 0 0
0 0 0
0 0 0
0 0 0
0 0 0
0 0 0
0 0 0
0 0 0
0 0 0
0 0 0
0 0 0
0 0 0
0 0 0
0 0 0
0 0 0
0 0 0
0 0 0
0 0 0
0 0 0
0 0 0
0 0 0
0 0 0
0 0 0
0 0 0
0 0 0
0 0 0
0 0 0
      </DataArray> 
      <DataArray type="Float64" NumberOfComponents="3" Name="Acceleration" format="ascii">
0 0 0
0 0 0
0 0 0
0 0 0
0 0 0
0 0 0
0 0 0
0 0 0
0 0 0
0 0 0
0 0 0
0 0 0
0 0 0
0 0 0
0 0 0
0 0 0
0 0 0
0 0 0
0 0 0
0 0 0
0 0 0
0 0 0
0 0 0
0 0 0
0 0 0
0 0 0
0 0 0
0 0 0
0 0 0
0 0 0
0 0 0
0 0 0
0 0 0
0 0 0
0 0 0
0 0 0
      </DataArray> 
    </PointData>
    <CellData>
    </CellData>
  </Piece>
  </UnstructuredGrid>
</VTKFile>
