<?xml version="1.0"?>
<VTKFile type="UnstructuredGrid">
  <UnstructuredGrid>
  <Piece NumberOfPoints="13"  NumberOfCells="23">
    <Points>
      <DataArray type="Float64" NumberOfComponents="3" format="ascii">
0 0 0
3.0635 0.401547 0
5.95501 1.45204 0
8.59014 3.00081 0
10.9733 4.87503 0
13.1818 6.91137 0
13.602 7.94921 0
12.5268 7.66613 0
10.3582 5.65824 0
8.06203 3.84332 0
5.56467 2.36463 0
2.85601 1.37092 0
0 1 0
      </DataArray>
    </Points>
    <Cells>
      <DataArray type="Int32" Name="connectivity" format="ascii">
0 1
1 2
2 3
3 4
4 5
5 6
0 12
0 11
1 11
1 10
2 10
2 9
3 9
3 8
4 8
4 7
5 7
7 6
11 12
11 10
10 9
8 9
7 8
      </DataArray>
      <DataArray type="Int32" Name="offsets" format="ascii">
2
4
6
8
10
12
14
16
18
20
22
24
26
28
30
32
34
36
38
40
42
44
46
      </DataArray>
      <DataArray type="UInt8" Name="types" format="ascii">
4
4
4
4
4
4
4
4
4
4
4
4
4
4
4
4
4
4
4
4
4
4
4
      </DataArray>
    </Cells>
    <PointData>
      <DataArray type="Float64" NumberOfComponents="3" Name="Displacement" format="ascii">
0 0 0
0.0634982 0.401547 0
-0.0449887 1.45204 0
-0.409855 3.00081 0
-1.02665 4.87503 0
-1.8182 6.91137 0
-2.39795 7.44921 0
-2.47322 6.66613 0
-1.64179 4.65824 0
-0.937973 2.84332 0
-0.435329 1.36463 0
-0.14399 0.370916 0
0 0 0
      </DataArray> 
    </PointData>
    <CellData>
    </CellData>
  </Piece>
  </UnstructuredGrid>
</VTKFile>
