<?xml version="1.0"?>
<VTKFile type="UnstructuredGrid">
  <UnstructuredGrid>
  <Piece NumberOfPoints="13"  NumberOfCells="23">
    <Points>
      <DataArray type="Float64" NumberOfComponents="3" format="ascii">
0 0 0
2.99892 0.00347763 0
5.99784 0.00716472 0
8.99675 0.0110118 0
11.9956 0.0149674 0
14.9945 0.0187926 0
15.9939 0.519104 0
14.9943 1.01898 0
11.9954 1.01497 0
8.99657 1.01101 0
5.9977 1.00716 0
2.99885 1.00348 0
0 1 0
      </DataArray>
    </Points>
    <Cells>
      <DataArray type="Int32" Name="connectivity" format="ascii">
0 1
1 2
2 3
3 4
4 5
5 6
0 12
0 11
1 11
1 10
2 10
2 9
3 9
3 8
4 8
4 7
5 7
7 6
11 12
11 10
10 9
8 9
7 8
      </DataArray>
      <DataArray type="Int32" Name="offsets" format="ascii">
2
4
6
8
10
12
14
16
18
20
22
24
26
28
30
32
34
36
38
40
42
44
46
      </DataArray>
      <DataArray type="UInt8" Name="types" format="ascii">
4
4
4
4
4
4
4
4
4
4
4
4
4
4
4
4
4
4
4
4
4
4
4
      </DataArray>
    </Cells>
    <PointData>
      <DataArray type="Float64" NumberOfComponents="3" Name="Displacement" format="ascii">
0 0 0
-0.00107514 0.00347763 0
-0.0021587 0.00716472 0
-0.00325099 0.0110118 0
-0.00435219 0.0149674 0
-0.00546191 0.0187926 0
-0.00613395 0.0191045 0
-0.00568144 0.0189767 0
-0.00456182 0.0149664 0
-0.0034335 0.0110109 0
-0.0022968 0.00716378 0
-0.00115213 0.00347675 0
0 0 0
      </DataArray> 
    </PointData>
    <CellData>
    </CellData>
  </Piece>
  </UnstructuredGrid>
</VTKFile>
