<?xml version="1.0"?>
<VTKFile type="UnstructuredGrid">
  <UnstructuredGrid>
  <Piece NumberOfPoints="13"  NumberOfCells="23">
    <Points>
      <DataArray type="Float64" NumberOfComponents="3" format="ascii">
0 0 0
3.0369 0.972814 0
5.06828 3.38178 0
6.13129 6.30384 0
6.46565 9.34975 0
6.39555 12.3655 0
5.90251 13.3766 0
5.39839 12.3866 0
5.48052 9.4591 0
5.19432 6.60523 0
4.28397 3.95737 0
2.60421 1.81702 0
0 1 0
      </DataArray>
    </Points>
    <Cells>
      <DataArray type="Int32" Name="connectivity" format="ascii">
0 1
1 2
2 3
3 4
4 5
5 6
0 12
0 11
1 11
1 10
2 10
2 9
3 9
3 8
4 8
4 7
5 7
7 6
11 12
11 10
10 9
8 9
7 8
      </DataArray>
      <DataArray type="Int32" Name="offsets" format="ascii">
2
4
6
8
10
12
14
16
18
20
22
24
26
28
30
32
34
36
38
40
42
44
46
      </DataArray>
      <DataArray type="UInt8" Name="types" format="ascii">
4
4
4
4
4
4
4
4
4
4
4
4
4
4
4
4
4
4
4
4
4
4
4
      </DataArray>
    </Cells>
    <PointData>
      <DataArray type="Float64" NumberOfComponents="3" Name="Displacement" format="ascii">
0 0 0
0.0368996 0.972814 0
-0.931721 3.38178 0
-2.86871 6.30384 0
-5.53435 9.34975 0
-8.60445 12.3655 0
-10.0975 12.8766 0
-9.60161 11.3866 0
-6.51948 8.4591 0
-3.80568 5.60523 0
-1.71603 2.95737 0
-0.395791 0.817023 0
0 0 0
      </DataArray> 
    </PointData>
    <CellData>
    </CellData>
  </Piece>
  </UnstructuredGrid>
</VTKFile>
