<?xml version="1.0"?>
<VTKFile type="UnstructuredGrid">
  <UnstructuredGrid>
  <Piece NumberOfPoints="13"  NumberOfCells="23">
    <Points>
      <DataArray type="Float64" NumberOfComponents="3" format="ascii">
0 0 0
2.99899 0.00323877 0
5.99798 0.00665813 0
8.99696 0.0102153 0
11.9959 0.0138657 0
14.9949 0.01739 0
15.9943 0.517665 0
14.9947 1.01756 0
11.9957 1.01386 0
8.9968 1.01021 0
5.99786 1.00666 0
2.99893 1.00324 0
0 1 0
      </DataArray>
    </Points>
    <Cells>
      <DataArray type="Int32" Name="connectivity" format="ascii">
0 1
1 2
2 3
3 4
4 5
5 6
0 12
0 11
1 11
1 10
2 10
2 9
3 9
3 8
4 8
4 7
5 7
7 6
11 12
11 10
10 9
8 9
7 8
      </DataArray>
      <DataArray type="Int32" Name="offsets" format="ascii">
2
4
6
8
10
12
14
16
18
20
22
24
26
28
30
32
34
36
38
40
42
44
46
      </DataArray>
      <DataArray type="UInt8" Name="types" format="ascii">
4
4
4
4
4
4
4
4
4
4
4
4
4
4
4
4
4
4
4
4
4
4
4
      </DataArray>
    </Cells>
    <PointData>
      <DataArray type="Float64" NumberOfComponents="3" Name="Displacement" format="ascii">
0 0 0
-0.00100695 0.00323877 0
-0.00202119 0.00665813 0
-0.00304295 0.0102153 0
-0.00407239 0.0138657 0
-0.00510915 0.01739 0
-0.00572911 0.0176655 0
-0.00529831 0.0175621 0
-0.00425308 0.0138648 0
-0.00320034 0.0102144 0
-0.00214034 0.00665732 0
-0.00107342 0.00323801 0
0 0 0
      </DataArray> 
    </PointData>
    <CellData>
    </CellData>
  </Piece>
  </UnstructuredGrid>
</VTKFile>
