<?xml version="1.0"?>
<VTKFile type="UnstructuredGrid">
  <UnstructuredGrid>
  <Piece NumberOfPoints="13"  NumberOfCells="23">
    <Points>
      <DataArray type="Float64" NumberOfComponents="3" format="ascii">
0 0 0
2.99771 0.00850012 0
5.99537 0.0184195 0
8.99297 0.0294539 0
11.9905 0.0412649 0
14.988 0.0530651 0
15.986 0.554781 0
14.9865 1.05348 0
11.9891 1.04126 0
8.99174 1.02945 0
5.99445 1.01841 0
2.9972 1.00849 0
0 1 0
      </DataArray>
    </Points>
    <Cells>
      <DataArray type="Int32" Name="connectivity" format="ascii">
0 1
1 2
2 3
3 4
4 5
5 6
0 12
0 11
1 11
1 10
2 10
2 9
3 9
3 8
4 8
4 7
5 7
7 6
11 12
11 10
10 9
8 9
7 8
      </DataArray>
      <DataArray type="Int32" Name="offsets" format="ascii">
2
4
6
8
10
12
14
16
18
20
22
24
26
28
30
32
34
36
38
40
42
44
46
      </DataArray>
      <DataArray type="UInt8" Name="types" format="ascii">
4
4
4
4
4
4
4
4
4
4
4
4
4
4
4
4
4
4
4
4
4
4
4
      </DataArray>
    </Cells>
    <PointData>
      <DataArray type="Float64" NumberOfComponents="3" Name="Displacement" format="ascii">
0 0 0
-0.00228749 0.00850012 0
-0.00462914 0.0184195 0
-0.0070301 0.0294539 0
-0.00949332 0.0412649 0
-0.0120168 0.0530651 0
-0.0140431 0.0547811 0
-0.0135216 0.0534786 0
-0.0109209 0.0412572 0
-0.00826257 0.0294468 0
-0.00555177 0.0184132 0
-0.00279504 0.00849483 0
0 0 0
      </DataArray> 
    </PointData>
    <CellData>
    </CellData>
  </Piece>
  </UnstructuredGrid>
</VTKFile>
