<?xml version="1.0"?>
<VTKFile type="UnstructuredGrid">
  <UnstructuredGrid>
  <Piece NumberOfPoints="13"  NumberOfCells="23">
    <Points>
      <DataArray type="Float64" NumberOfComponents="3" format="ascii">
0 0 0
3.07083 0.554802 0
5.82449 1.98311 0
8.13277 4.01558 0
10.0307 6.39491 0
11.6607 8.92284 0
11.8131 10.0338 0
10.8416 9.49429 0
9.25337 7.01485 0
7.45134 4.73551 0
5.30905 2.82539 0
2.79334 1.49905 0
0 1 0
      </DataArray>
    </Points>
    <Cells>
      <DataArray type="Int32" Name="connectivity" format="ascii">
0 1
1 2
2 3
3 4
4 5
5 6
0 12
0 11
1 11
1 10
2 10
2 9
3 9
3 8
4 8
4 7
5 7
7 6
11 12
11 10
10 9
8 9
7 8
      </DataArray>
      <DataArray type="Int32" Name="offsets" format="ascii">
2
4
6
8
10
12
14
16
18
20
22
24
26
28
30
32
34
36
38
40
42
44
46
      </DataArray>
      <DataArray type="UInt8" Name="types" format="ascii">
4
4
4
4
4
4
4
4
4
4
4
4
4
4
4
4
4
4
4
4
4
4
4
      </DataArray>
    </Cells>
    <PointData>
      <DataArray type="Float64" NumberOfComponents="3" Name="Displacement" format="ascii">
0 0 0
0.0708302 0.554802 0
-0.175505 1.98311 0
-0.867233 4.01558 0
-1.9693 6.39491 0
-3.33928 8.92284 0
-4.18693 9.53378 0
-4.15839 8.49429 0
-2.74663 6.01485 0
-1.54866 3.73551 0
-0.690952 1.82539 0
-0.206661 0.499051 0
0 0 0
      </DataArray> 
    </PointData>
    <CellData>
    </CellData>
  </Piece>
  </UnstructuredGrid>
</VTKFile>
