<?xml version="1.0"?>
<VTKFile type="UnstructuredGrid">
  <UnstructuredGrid>
  <Piece NumberOfPoints="13"  NumberOfCells="23">
    <Points>
      <DataArray type="Float64" NumberOfComponents="3" format="ascii">
0 0 0
3.02304 0.135947 0
6.02476 0.482573 0
8.9935 1.0081 0
11.9269 1.66629 0
14.8324 2.39979 0
15.6864 3.11919 0
14.6017 3.37339 0
11.7124 2.64184 0
8.81318 1.99048 0
5.89448 1.47282 0
2.95466 1.13247 0
0 1 0
      </DataArray>
    </Points>
    <Cells>
      <DataArray type="Int32" Name="connectivity" format="ascii">
0 1
1 2
2 3
3 4
4 5
5 6
0 12
0 11
1 11
1 10
2 10
2 9
3 9
3 8
4 8
4 7
5 7
7 6
11 12
11 10
10 9
8 9
7 8
      </DataArray>
      <DataArray type="Int32" Name="offsets" format="ascii">
2
4
6
8
10
12
14
16
18
20
22
24
26
28
30
32
34
36
38
40
42
44
46
      </DataArray>
      <DataArray type="UInt8" Name="types" format="ascii">
4
4
4
4
4
4
4
4
4
4
4
4
4
4
4
4
4
4
4
4
4
4
4
      </DataArray>
    </Cells>
    <PointData>
      <DataArray type="Float64" NumberOfComponents="3" Name="Displacement" format="ascii">
0 0 0
0.0230358 0.135947 0
0.0247559 0.482573 0
-0.00649663 1.0081 0
-0.0731028 1.66629 0
-0.167641 2.39979 0
-0.313646 2.61919 0
-0.39829 2.37339 0
-0.287593 1.64184 0
-0.186816 0.990485 0
-0.105521 0.472822 0
-0.0453444 0.132472 0
0 0 0
      </DataArray> 
    </PointData>
    <CellData>
    </CellData>
  </Piece>
  </UnstructuredGrid>
</VTKFile>
