<?xml version="1.0"?>
<VTKFile type="UnstructuredGrid">
  <UnstructuredGrid>
  <Piece NumberOfPoints="13"  NumberOfCells="23">
    <Points>
      <DataArray type="Float64" NumberOfComponents="3" format="ascii">
0 0 0
2.99688 0.0207551 0
5.99336 0.0521584 0
8.98935 0.0923442 0
11.9848 0.138927 0
14.9797 0.188308 0
15.9715 0.700265 0
14.9682 1.18901 0
11.974 1.13882 0
8.98014 1.09226 0
5.9866 1.0521 0
2.99325 1.02072 0
0 1 0
      </DataArray>
    </Points>
    <Cells>
      <DataArray type="Int32" Name="connectivity" format="ascii">
0 1
1 2
2 3
3 4
4 5
5 6
0 12
0 11
1 11
1 10
2 10
2 9
3 9
3 8
4 8
4 7
5 7
7 6
11 12
11 10
10 9
8 9
7 8
      </DataArray>
      <DataArray type="Int32" Name="offsets" format="ascii">
2
4
6
8
10
12
14
16
18
20
22
24
26
28
30
32
34
36
38
40
42
44
46
      </DataArray>
      <DataArray type="UInt8" Name="types" format="ascii">
4
4
4
4
4
4
4
4
4
4
4
4
4
4
4
4
4
4
4
4
4
4
4
      </DataArray>
    </Cells>
    <PointData>
      <DataArray type="Float64" NumberOfComponents="3" Name="Displacement" format="ascii">
0 0 0
-0.00312434 0.0207551 0
-0.00664079 0.0521584 0
-0.0106455 0.0923442 0
-0.0151876 0.138927 0
-0.0202503 0.188308 0
-0.0285032 0.200265 0
-0.0317901 0.18901 0
-0.0260161 0.138817 0
-0.0198552 0.0922552 0
-0.0134025 0.0520963 0
-0.00675412 0.0207189 0
0 0 0
      </DataArray> 
    </PointData>
    <CellData>
    </CellData>
  </Piece>
  </UnstructuredGrid>
</VTKFile>
