<?xml version="1.0"?>
<VTKFile type="UnstructuredGrid">
  <UnstructuredGrid>
  <Piece NumberOfPoints="13"  NumberOfCells="23">
    <Points>
      <DataArray type="Float64" NumberOfComponents="3" format="ascii">
0 0 0
2.99699 0.0135185 0
5.99383 0.031065 0
8.99049 0.0518518 0
11.987 0.0749465 0
14.9833 0.0986888 0
15.9793 0.603316 0
14.979 1.09928 0
11.9829 1.07492 0
8.987 1.05183 0
5.99124 1.03105 0
2.99558 1.0135 0
0 1 0
      </DataArray>
    </Points>
    <Cells>
      <DataArray type="Int32" Name="connectivity" format="ascii">
0 1
1 2
2 3
3 4
4 5
5 6
0 12
0 11
1 11
1 10
2 10
2 9
3 9
3 8
4 8
4 7
5 7
7 6
11 12
11 10
10 9
8 9
7 8
      </DataArray>
      <DataArray type="Int32" Name="offsets" format="ascii">
2
4
6
8
10
12
14
16
18
20
22
24
26
28
30
32
34
36
38
40
42
44
46
      </DataArray>
      <DataArray type="UInt8" Name="types" format="ascii">
4
4
4
4
4
4
4
4
4
4
4
4
4
4
4
4
4
4
4
4
4
4
4
      </DataArray>
    </Cells>
    <PointData>
      <DataArray type="Float64" NumberOfComponents="3" Name="Displacement" format="ascii">
0 0 0
-0.00301295 0.0135185 0
-0.00617454 0.031065 0
-0.00950822 0.0518518 0
-0.013027 0.0749465 0
-0.0167261 0.0986888 0
-0.0207382 0.103316 0
-0.0210414 0.0992759 0
-0.0170989 0.074919 0
-0.0129982 0.0518279 0
-0.00876278 0.031046 0
-0.00442019 0.0135047 0
0 0 0
      </DataArray> 
    </PointData>
    <CellData>
    </CellData>
  </Piece>
  </UnstructuredGrid>
</VTKFile>
