<?xml version="1.0"?>
<VTKFile type="UnstructuredGrid">
  <UnstructuredGrid>
  <Piece NumberOfPoints="13"  NumberOfCells="23">
    <Points>
      <DataArray type="Float64" NumberOfComponents="3" format="ascii">
0 0 0
2.9991 0.00288367 0
5.99819 0.00590923 0
8.99727 0.00904282 0
11.9963 0.0122494 0
14.9954 0.0153378 0
15.9949 0.515563 0
14.9953 1.01549 0
11.9962 1.01225 0
8.99715 1.00904 0
5.99809 1.00591 0
2.99904 1.00288 0
0 1 0
      </DataArray>
    </Points>
    <Cells>
      <DataArray type="Int32" Name="connectivity" format="ascii">
0 1
1 2
2 3
3 4
4 5
5 6
0 12
0 11
1 11
1 10
2 10
2 9
3 9
3 8
4 8
4 7
5 7
7 6
11 12
11 10
10 9
8 9
7 8
      </DataArray>
      <DataArray type="Int32" Name="offsets" format="ascii">
2
4
6
8
10
12
14
16
18
20
22
24
26
28
30
32
34
36
38
40
42
44
46
      </DataArray>
      <DataArray type="UInt8" Name="types" format="ascii">
4
4
4
4
4
4
4
4
4
4
4
4
4
4
4
4
4
4
4
4
4
4
4
      </DataArray>
    </Cells>
    <PointData>
      <DataArray type="Float64" NumberOfComponents="3" Name="Displacement" format="ascii">
0 0 0
-0.000903969 0.00288367 0
-0.00181368 0.00590923 0
-0.00272932 0.00904282 0
-0.00365097 0.0122494 0
-0.00457836 0.0153378 0
-0.00512266 0.0155635 0
-0.00472686 0.0154918 0
-0.00379289 0.0122487 0
-0.00285301 0.00904216 0
-0.00190741 0.00590859 0
-0.000956305 0.00288306 0
0 0 0
      </DataArray> 
    </PointData>
    <CellData>
    </CellData>
  </Piece>
  </UnstructuredGrid>
</VTKFile>
