<?xml version="1.0"?>
<VTKFile type="UnstructuredGrid">
  <UnstructuredGrid>
  <Piece NumberOfPoints="13"  NumberOfCells="23">
    <Points>
      <DataArray type="Float64" NumberOfComponents="3" format="ascii">
0 0 0
3.05936 0.805184 0
5.4662 2.81425 0
7.09191 5.45249 0
8.08217 8.34556 0
8.69615 11.2958 0
8.44389 12.3908 0
7.72882 11.5408 0
7.14366 8.66725 0
6.23204 5.93619 0
4.78145 3.51282 0
2.6826 1.69626 0
0 1 0
      </DataArray>
    </Points>
    <Cells>
      <DataArray type="Int32" Name="connectivity" format="ascii">
0 1
1 2
2 3
3 4
4 5
5 6
0 12
0 11
1 11
1 10
2 10
2 9
3 9
3 8
4 8
4 7
5 7
7 6
11 12
11 10
10 9
8 9
7 8
      </DataArray>
      <DataArray type="Int32" Name="offsets" format="ascii">
2
4
6
8
10
12
14
16
18
20
22
24
26
28
30
32
34
36
38
40
42
44
46
      </DataArray>
      <DataArray type="UInt8" Name="types" format="ascii">
4
4
4
4
4
4
4
4
4
4
4
4
4
4
4
4
4
4
4
4
4
4
4
      </DataArray>
    </Cells>
    <PointData>
      <DataArray type="Float64" NumberOfComponents="3" Name="Displacement" format="ascii">
0 0 0
0.0593566 0.805184 0
-0.533801 2.81425 0
-1.90809 5.45249 0
-3.91783 8.34556 0
-6.30385 11.2958 0
-7.55611 11.8908 0
-7.27118 10.5408 0
-4.85634 7.66725 0
-2.76796 4.93619 0
-1.21855 2.51282 0
-0.317398 0.69626 0
0 0 0
      </DataArray> 
    </PointData>
    <CellData>
    </CellData>
  </Piece>
  </UnstructuredGrid>
</VTKFile>
