<?xml version="1.0"?>
<VTKFile type="UnstructuredGrid">
  <UnstructuredGrid>
  <Piece NumberOfPoints="13"  NumberOfCells="23">
    <Points>
      <DataArray type="Float64" NumberOfComponents="3" format="ascii">
0 0 0
3.05564 0.8393 0
5.4005 2.9259 0
6.92095 5.62902 0
7.78242 8.56458 0
8.2587 11.5408 0
7.95616 12.6233 0
7.28124 11.7411 0
6.83084 8.84443 0
6.04305 6.07796 0
4.69537 3.60212 0
2.6668 1.7219 0
0 1 0
      </DataArray>
    </Points>
    <Cells>
      <DataArray type="Int32" Name="connectivity" format="ascii">
0 1
1 2
2 3
3 4
4 5
5 6
0 12
0 11
1 11
1 10
2 10
2 9
3 9
3 8
4 8
4 7
5 7
7 6
11 12
11 10
10 9
8 9
7 8
      </DataArray>
      <DataArray type="Int32" Name="offsets" format="ascii">
2
4
6
8
10
12
14
16
18
20
22
24
26
28
30
32
34
36
38
40
42
44
46
      </DataArray>
      <DataArray type="UInt8" Name="types" format="ascii">
4
4
4
4
4
4
4
4
4
4
4
4
4
4
4
4
4
4
4
4
4
4
4
      </DataArray>
    </Cells>
    <PointData>
      <DataArray type="Float64" NumberOfComponents="3" Name="Displacement" format="ascii">
0 0 0
0.0556413 0.8393 0
-0.599503 2.9259 0
-2.07905 5.62902 0
-4.21758 8.56458 0
-6.7413 11.5408 0
-8.04384 12.1233 0
-7.71876 10.7411 0
-5.16916 7.84443 0
-2.95695 5.07796 0
-1.30463 2.60212 0
-0.333202 0.721903 0
0 0 0
      </DataArray> 
    </PointData>
    <CellData>
    </CellData>
  </Piece>
  </UnstructuredGrid>
</VTKFile>
