<?xml version="1.0"?>
<VTKFile type="UnstructuredGrid">
  <UnstructuredGrid>
  <Piece NumberOfPoints="13"  NumberOfCells="23">
    <Points>
      <DataArray type="Float64" NumberOfComponents="3" format="ascii">
0 0 0
3.05865 0.812055 0
5.45338 2.83671 0
7.05814 5.48836 0
8.02254 8.39048 0
8.60873 11.3465 0
8.34625 12.4391 0
7.63919 11.5825 0
7.08124 8.70375 0
6.19452 5.9651 0
4.76449 3.53085 0
2.67943 1.70145 0
0 1 0
      </DataArray>
    </Points>
    <Cells>
      <DataArray type="Int32" Name="connectivity" format="ascii">
0 1
1 2
2 3
3 4
4 5
5 6
0 12
0 11
1 11
1 10
2 10
2 9
3 9
3 8
4 8
4 7
5 7
7 6
11 12
11 10
10 9
8 9
7 8
      </DataArray>
      <DataArray type="Int32" Name="offsets" format="ascii">
2
4
6
8
10
12
14
16
18
20
22
24
26
28
30
32
34
36
38
40
42
44
46
      </DataArray>
      <DataArray type="UInt8" Name="types" format="ascii">
4
4
4
4
4
4
4
4
4
4
4
4
4
4
4
4
4
4
4
4
4
4
4
      </DataArray>
    </Cells>
    <PointData>
      <DataArray type="Float64" NumberOfComponents="3" Name="Displacement" format="ascii">
0 0 0
0.0586479 0.812055 0
-0.546625 2.83671 0
-1.94186 5.48836 0
-3.97746 8.39048 0
-6.39127 11.3465 0
-7.65375 11.9391 0
-7.36081 10.5825 0
-4.91876 7.70375 0
-2.80548 4.9651 0
-1.23551 2.53085 0
-0.32057 0.701453 0
0 0 0
      </DataArray> 
    </PointData>
    <CellData>
    </CellData>
  </Piece>
  </UnstructuredGrid>
</VTKFile>
