<?xml version="1.0"?>
<VTKFile type="UnstructuredGrid">
  <UnstructuredGrid>
  <Piece NumberOfPoints="13"  NumberOfCells="23">
    <Points>
      <DataArray type="Float64" NumberOfComponents="3" format="ascii">
0 0 0
2.99807 0.00683268 0
5.9961 0.0145452 0
8.99409 0.0229429 0
11.992 0.0318136 0
14.99 0.0405837 0
15.9885 0.541687 0
14.989 1.04093 0
11.9912 1.03181 0
8.99333 1.02294 0
5.99552 1.01454 0
2.99775 1.00683 0
0 1 0
      </DataArray>
    </Points>
    <Cells>
      <DataArray type="Int32" Name="connectivity" format="ascii">
0 1
1 2
2 3
3 4
4 5
5 6
0 12
0 11
1 11
1 10
2 10
2 9
3 9
3 8
4 8
4 7
5 7
7 6
11 12
11 10
10 9
8 9
7 8
      </DataArray>
      <DataArray type="Int32" Name="offsets" format="ascii">
2
4
6
8
10
12
14
16
18
20
22
24
26
28
30
32
34
36
38
40
42
44
46
      </DataArray>
      <DataArray type="UInt8" Name="types" format="ascii">
4
4
4
4
4
4
4
4
4
4
4
4
4
4
4
4
4
4
4
4
4
4
4
      </DataArray>
    </Cells>
    <PointData>
      <DataArray type="Float64" NumberOfComponents="3" Name="Displacement" format="ascii">
0 0 0
-0.0019345 0.00683268 0
-0.00390312 0.0145452 0
-0.0059084 0.0229429 0
-0.00795182 0.0318136 0
-0.010032 0.0405837 0
-0.0115484 0.0416867 0
-0.0109614 0.0409264 0
-0.00883532 0.0318091 0
-0.00667321 0.0229386 0
-0.00447763 0.0145413 0
-0.00225191 0.00682927 0
0 0 0
      </DataArray> 
    </PointData>
    <CellData>
    </CellData>
  </Piece>
  </UnstructuredGrid>
</VTKFile>
