<?xml version="1.0"?>
<VTKFile type="UnstructuredGrid">
  <UnstructuredGrid>
  <Piece NumberOfPoints="13"  NumberOfCells="23">
    <Points>
      <DataArray type="Float64" NumberOfComponents="3" format="ascii">
0 0 0
3.0369 0.203882 0
6.02678 0.736677 0
8.94366 1.54428 0
11.7839 2.55137 0
14.5661 3.66956 0
15.3189 4.49529 0
14.211 4.60463 0
11.4532 3.49313 0
8.66483 2.50237 0
5.82469 1.71359 0
2.93067 1.19577 0
0 1 0
      </DataArray>
    </Points>
    <Cells>
      <DataArray type="Int32" Name="connectivity" format="ascii">
0 1
1 2
2 3
3 4
4 5
5 6
0 12
0 11
1 11
1 10
2 10
2 9
3 9
3 8
4 8
4 7
5 7
7 6
11 12
11 10
10 9
8 9
7 8
      </DataArray>
      <DataArray type="Int32" Name="offsets" format="ascii">
2
4
6
8
10
12
14
16
18
20
22
24
26
28
30
32
34
36
38
40
42
44
46
      </DataArray>
      <DataArray type="UInt8" Name="types" format="ascii">
4
4
4
4
4
4
4
4
4
4
4
4
4
4
4
4
4
4
4
4
4
4
4
      </DataArray>
    </Cells>
    <PointData>
      <DataArray type="Float64" NumberOfComponents="3" Name="Displacement" format="ascii">
0 0 0
0.0369024 0.203882 0
0.0267827 0.736677 0
-0.0563365 1.54428 0
-0.216133 2.55137 0
-0.433906 3.66956 0
-0.681052 3.99529 0
-0.789035 3.60463 0
-0.546784 2.49313 0
-0.335165 1.50237 0
-0.175314 0.713588 0
-0.0693269 0.195766 0
0 0 0
      </DataArray> 
    </PointData>
    <CellData>
    </CellData>
  </Piece>
  </UnstructuredGrid>
</VTKFile>
