<?xml version="1.0"?>
<VTKFile type="UnstructuredGrid">
  <UnstructuredGrid>
  <Piece NumberOfPoints="13"  NumberOfCells="23">
    <Points>
      <DataArray type="Float64" NumberOfComponents="3" format="ascii">
0 0 0
2.9968 0.0189013 0
5.99329 0.0464411 0
8.98939 0.0810681 0
11.9851 0.120833 0
14.9803 0.162709 0
15.9733 0.672444 0
14.971 1.1634 0
11.9763 1.12075 0
8.98192 1.081 0
5.98779 1.04639 0
2.99384 1.01887 0
0 1 0
      </DataArray>
    </Points>
    <Cells>
      <DataArray type="Int32" Name="connectivity" format="ascii">
0 1
1 2
2 3
3 4
4 5
5 6
0 12
0 11
1 11
1 10
2 10
2 9
3 9
3 8
4 8
4 7
5 7
7 6
11 12
11 10
10 9
8 9
7 8
      </DataArray>
      <DataArray type="Int32" Name="offsets" format="ascii">
2
4
6
8
10
12
14
16
18
20
22
24
26
28
30
32
34
36
38
40
42
44
46
      </DataArray>
      <DataArray type="UInt8" Name="types" format="ascii">
4
4
4
4
4
4
4
4
4
4
4
4
4
4
4
4
4
4
4
4
4
4
4
      </DataArray>
    </Cells>
    <PointData>
      <DataArray type="Float64" NumberOfComponents="3" Name="Displacement" format="ascii">
0 0 0
-0.00319588 0.0189013 0
-0.00670832 0.0464411 0
-0.0106083 0.0810681 0
-0.0149328 0.120833 0
-0.0196697 0.162709 0
-0.0266794 0.172444 0
-0.0290083 0.163399 0
-0.023706 0.120753 0
-0.0180823 0.0810023 0
-0.0122077 0.0463939 0
-0.00615619 0.0188722 0
0 0 0
      </DataArray> 
    </PointData>
    <CellData>
    </CellData>
  </Piece>
  </UnstructuredGrid>
</VTKFile>
