<?xml version="1.0"?>
<VTKFile type="UnstructuredGrid">
  <UnstructuredGrid>
  <Piece NumberOfPoints="13"  NumberOfCells="23">
    <Points>
      <DataArray type="Float64" NumberOfComponents="3" format="ascii">
0 0 0
2.9968 0.0172707 0
5.99333 0.0415845 0
8.98956 0.0716463 0
11.9855 0.105855 0
14.981 0.141647 0
15.975 0.649616 0
14.9734 1.14232 0
11.9783 1.1058 0
8.98347 1.0716 0
5.98884 1.04155 0
2.99437 1.01725 0
0 1 0
      </DataArray>
    </Points>
    <Cells>
      <DataArray type="Int32" Name="connectivity" format="ascii">
0 1
1 2
2 3
3 4
4 5
5 6
0 12
0 11
1 11
1 10
2 10
2 9
3 9
3 8
4 8
4 7
5 7
7 6
11 12
11 10
10 9
8 9
7 8
      </DataArray>
      <DataArray type="Int32" Name="offsets" format="ascii">
2
4
6
8
10
12
14
16
18
20
22
24
26
28
30
32
34
36
38
40
42
44
46
      </DataArray>
      <DataArray type="UInt8" Name="types" format="ascii">
4
4
4
4
4
4
4
4
4
4
4
4
4
4
4
4
4
4
4
4
4
4
4
      </DataArray>
    </Cells>
    <PointData>
      <DataArray type="Float64" NumberOfComponents="3" Name="Displacement" format="ascii">
0 0 0
-0.00320424 0.0172707 0
-0.00666625 0.0415845 0
-0.0104388 0.0716463 0
-0.0145499 0.105855 0
-0.0189906 0.141647 0
-0.0249941 0.149616 0
-0.0265859 0.142316 0
-0.0216938 0.105796 0
-0.0165347 0.0715968 0
-0.0111612 0.0415479 0
-0.00563045 0.017247 0
0 0 0
      </DataArray> 
    </PointData>
    <CellData>
    </CellData>
  </Piece>
  </UnstructuredGrid>
</VTKFile>
