<?xml version="1.0"?>
<VTKFile type="UnstructuredGrid">
  <UnstructuredGrid>
  <Piece NumberOfPoints="13"  NumberOfCells="23">
    <Points>
      <DataArray type="Float64" NumberOfComponents="3" format="ascii">
0 0 0
2.99752 0.00953004 0
5.99497 0.0208894 0
8.99235 0.0336934 0
11.9896 0.0475087 0
14.9869 0.0613982 0
15.9845 0.563576 0
14.9849 1.06185 0
11.9878 1.0475 0
8.99076 1.03368 0
5.99379 1.02088 0
2.99687 1.00952 0
0 1 0
      </DataArray>
    </Points>
    <Cells>
      <DataArray type="Int32" Name="connectivity" format="ascii">
0 1
1 2
2 3
3 4
4 5
5 6
0 12
0 11
1 11
1 10
2 10
2 9
3 9
3 8
4 8
4 7
5 7
7 6
11 12
11 10
10 9
8 9
7 8
      </DataArray>
      <DataArray type="Int32" Name="offsets" format="ascii">
2
4
6
8
10
12
14
16
18
20
22
24
26
28
30
32
34
36
38
40
42
44
46
      </DataArray>
      <DataArray type="UInt8" Name="types" format="ascii">
4
4
4
4
4
4
4
4
4
4
4
4
4
4
4
4
4
4
4
4
4
4
4
      </DataArray>
    </Cells>
    <PointData>
      <DataArray type="Float64" NumberOfComponents="3" Name="Displacement" format="ascii">
0 0 0
-0.00247877 0.00953004 0
-0.00502674 0.0208894 0
-0.00765136 0.0336934 0
-0.0103569 0.0475087 0
-0.0131409 0.0613982 0
-0.0155168 0.0635756 0
-0.0150848 0.0618524 0
-0.0121989 0.0474984 0
-0.00923903 0.033684 0
-0.00621282 0.0208812 0
-0.00312958 0.00952336 0
0 0 0
      </DataArray> 
    </PointData>
    <CellData>
    </CellData>
  </Piece>
  </UnstructuredGrid>
</VTKFile>
