<?xml version="1.0"?>
<VTKFile type="UnstructuredGrid">
  <UnstructuredGrid>
  <Piece NumberOfPoints="13"  NumberOfCells="23">
    <Points>
      <DataArray type="Float64" NumberOfComponents="3" format="ascii">
0 0 0
2.99841 0.00539281 0
5.9968 0.0113142 0
8.99517 0.017644 0
11.9935 0.0242535 0
14.9918 0.0307272 0
15.9907 0.531423 0
14.9913 1.031 0
11.993 1.02425 0
8.99471 1.01764 0
5.99645 1.01131 0
2.99822 1.00539 0
0 1 0
      </DataArray>
    </Points>
    <Cells>
      <DataArray type="Int32" Name="connectivity" format="ascii">
0 1
1 2
2 3
3 4
4 5
5 6
0 12
0 11
1 11
1 10
2 10
2 9
3 9
3 8
4 8
4 7
5 7
7 6
11 12
11 10
10 9
8 9
7 8
      </DataArray>
      <DataArray type="Int32" Name="offsets" format="ascii">
2
4
6
8
10
12
14
16
18
20
22
24
26
28
30
32
34
36
38
40
42
44
46
      </DataArray>
      <DataArray type="UInt8" Name="types" format="ascii">
4
4
4
4
4
4
4
4
4
4
4
4
4
4
4
4
4
4
4
4
4
4
4
      </DataArray>
    </Cells>
    <PointData>
      <DataArray type="Float64" NumberOfComponents="3" Name="Displacement" format="ascii">
0 0 0
-0.00158897 0.00539281 0
-0.00319875 0.0113142 0
-0.00483053 0.017644 0
-0.00648502 0.0242535 0
-0.00816134 0.0307272 0
-0.00928797 0.0314233 0
-0.00871783 0.0310043 0
-0.00701504 0.0242509 0
-0.00529045 0.0176415 0
-0.0035453 0.0113119 0
-0.00178117 0.00539069 0
0 0 0
      </DataArray> 
    </PointData>
    <CellData>
    </CellData>
  </Piece>
  </UnstructuredGrid>
</VTKFile>
