<?xml version="1.0"?>
<VTKFile type="UnstructuredGrid">
  <UnstructuredGrid>
  <Piece NumberOfPoints="13"  NumberOfCells="23">
    <Points>
      <DataArray type="Float64" NumberOfComponents="3" format="ascii">
0 0 0
3.03365 0.993636 0
4.99215 3.46422 0
5.96775 6.41763 0
6.20772 9.47302 0
6.04302 12.4854 0
5.5184 13.4807 0
5.04575 12.4753 0
5.21975 9.55189 0
5.02254 6.6913 0
4.19368 4.0193 0
2.59468 1.8301 0
0 1 0
      </DataArray>
    </Points>
    <Cells>
      <DataArray type="Int32" Name="connectivity" format="ascii">
0 1
1 2
2 3
3 4
4 5
5 6
0 12
0 11
1 11
1 10
2 10
2 9
3 9
3 8
4 8
4 7
5 7
7 6
11 12
11 10
10 9
8 9
7 8
      </DataArray>
      <DataArray type="Int32" Name="offsets" format="ascii">
2
4
6
8
10
12
14
16
18
20
22
24
26
28
30
32
34
36
38
40
42
44
46
      </DataArray>
      <DataArray type="UInt8" Name="types" format="ascii">
4
4
4
4
4
4
4
4
4
4
4
4
4
4
4
4
4
4
4
4
4
4
4
      </DataArray>
    </Cells>
    <PointData>
      <DataArray type="Float64" NumberOfComponents="3" Name="Displacement" format="ascii">
0 0 0
0.0336532 0.993636 0
-1.00785 3.46422 0
-3.03225 6.41763 0
-5.79228 9.47302 0
-8.95698 12.4854 0
-10.4816 12.9807 0
-9.95425 11.4753 0
-6.78025 8.55189 0
-3.97746 5.6913 0
-1.80632 3.0193 0
-0.405318 0.830102 0
0 0 0
      </DataArray> 
    </PointData>
    <CellData>
    </CellData>
  </Piece>
  </UnstructuredGrid>
</VTKFile>
