<?xml version="1.0"?>
<VTKFile type="UnstructuredGrid">
  <UnstructuredGrid>
  <Piece NumberOfPoints="13"  NumberOfCells="23">
    <Points>
      <DataArray type="Float64" NumberOfComponents="3" format="ascii">
0 0 0
2.99911 0.00282485 0
5.99822 0.00578566 0
8.99732 0.00884994 0
11.9964 0.0119841 0
14.9955 0.0150016 0
15.995 0.51522 0
14.9954 1.01515 0
11.9963 1.01198 0
8.9972 1.00885 0
5.99813 1.00579 0
2.99906 1.00282 0
0 1 0
      </DataArray>
    </Points>
    <Cells>
      <DataArray type="Int32" Name="connectivity" format="ascii">
0 1
1 2
2 3
3 4
4 5
5 6
0 12
0 11
1 11
1 10
2 10
2 9
3 9
3 8
4 8
4 7
5 7
7 6
11 12
11 10
10 9
8 9
7 8
      </DataArray>
      <DataArray type="Int32" Name="offsets" format="ascii">
2
4
6
8
10
12
14
16
18
20
22
24
26
28
30
32
34
36
38
40
42
44
46
      </DataArray>
      <DataArray type="UInt8" Name="types" format="ascii">
4
4
4
4
4
4
4
4
4
4
4
4
4
4
4
4
4
4
4
4
4
4
4
      </DataArray>
    </Cells>
    <PointData>
      <DataArray type="Float64" NumberOfComponents="3" Name="Displacement" format="ascii">
0 0 0
-0.000886726 0.00282485 0
-0.00177896 0.00578566 0
-0.00267687 0.00884994 0
-0.00358054 0.0119841 0
-0.00448971 0.0150016 0
-0.00502167 0.0152195 0
-0.00463199 0.0151526 0
-0.00371652 0.0119834 0
-0.0027954 0.00884931 0
-0.00186878 0.00578505 0
-0.000936891 0.00282427 0
0 0 0
      </DataArray> 
    </PointData>
    <CellData>
    </CellData>
  </Piece>
  </UnstructuredGrid>
</VTKFile>
