<?xml version="1.0"?>
<VTKFile type="UnstructuredGrid">
  <UnstructuredGrid>
  <Piece NumberOfPoints="13"  NumberOfCells="23">
    <Points>
      <DataArray type="Float64" NumberOfComponents="3" format="ascii">
0 0 0
3.07095 0.588641 0
5.78701 2.09778 0
8.01278 4.22563 0
9.79389 6.69643 0
11.2885 9.30764 0
11.383 10.4253 0
10.4411 9.83593 0
8.98753 7.27755 0
7.30216 4.9158 0
5.24628 2.92259 0
2.77896 1.52656 0
0 1 0
      </DataArray>
    </Points>
    <Cells>
      <DataArray type="Int32" Name="connectivity" format="ascii">
0 1
1 2
2 3
3 4
4 5
5 6
0 12
0 11
1 11
1 10
2 10
2 9
3 9
3 8
4 8
4 7
5 7
7 6
11 12
11 10
10 9
8 9
7 8
      </DataArray>
      <DataArray type="Int32" Name="offsets" format="ascii">
2
4
6
8
10
12
14
16
18
20
22
24
26
28
30
32
34
36
38
40
42
44
46
      </DataArray>
      <DataArray type="UInt8" Name="types" format="ascii">
4
4
4
4
4
4
4
4
4
4
4
4
4
4
4
4
4
4
4
4
4
4
4
      </DataArray>
    </Cells>
    <PointData>
      <DataArray type="Float64" NumberOfComponents="3" Name="Displacement" format="ascii">
0 0 0
0.0709522 0.588641 0
-0.212994 2.09778 0
-0.987221 4.22563 0
-2.20611 6.69643 0
-3.71148 9.30764 0
-4.61704 9.92533 0
-4.55892 8.83593 0
-3.01247 6.27755 0
-1.69784 3.9158 0
-0.753724 1.92259 0
-0.221039 0.526561 0
0 0 0
      </DataArray> 
    </PointData>
    <CellData>
    </CellData>
  </Piece>
  </UnstructuredGrid>
</VTKFile>
