<?xml version="1.0"?>
<VTKFile type="UnstructuredGrid">
  <UnstructuredGrid>
  <Piece NumberOfPoints="13"  NumberOfCells="23">
    <Points>
      <DataArray type="Float64" NumberOfComponents="3" format="ascii">
0 0 0
2.99894 0.00341776 0
5.99788 0.00703751 0
8.9968 0.0108115 0
11.9957 0.0146901 0
14.9946 0.0184393 0
15.994 0.518742 0
14.9944 1.01862 0
11.9955 1.01469 0
8.99662 1.01081 0
5.99774 1.00704 0
2.99887 1.00342 0
0 1 0
      </DataArray>
    </Points>
    <Cells>
      <DataArray type="Int32" Name="connectivity" format="ascii">
0 1
1 2
2 3
3 4
4 5
5 6
0 12
0 11
1 11
1 10
2 10
2 9
3 9
3 8
4 8
4 7
5 7
7 6
11 12
11 10
10 9
8 9
7 8
      </DataArray>
      <DataArray type="Int32" Name="offsets" format="ascii">
2
4
6
8
10
12
14
16
18
20
22
24
26
28
30
32
34
36
38
40
42
44
46
      </DataArray>
      <DataArray type="UInt8" Name="types" format="ascii">
4
4
4
4
4
4
4
4
4
4
4
4
4
4
4
4
4
4
4
4
4
4
4
      </DataArray>
    </Cells>
    <PointData>
      <DataArray type="Float64" NumberOfComponents="3" Name="Displacement" format="ascii">
0 0 0
-0.00105813 0.00341776 0
-0.00212439 0.00703751 0
-0.00319906 0.0108115 0
-0.00428233 0.0146901 0
-0.00537381 0.0184393 0
-0.0060327 0.0187418 0
-0.00558549 0.0186204 0
-0.00448448 0.0146892 0
-0.00337509 0.0108106 0
-0.0022576 0.00703661 0
-0.00113241 0.0034169 0
0 0 0
      </DataArray> 
    </PointData>
    <CellData>
    </CellData>
  </Piece>
  </UnstructuredGrid>
</VTKFile>
