<?xml version="1.0"?>
<VTKFile type="UnstructuredGrid">
  <UnstructuredGrid>
  <Piece NumberOfPoints="13"  NumberOfCells="23">
    <Points>
      <DataArray type="Float64" NumberOfComponents="3" format="ascii">
0 0 0
3.07056 0.537342 0
5.8426 1.92359 0
8.19209 3.9052 0
10.1492 6.23451 0
11.8483 8.716 0
12.0308 9.82221 0
11.0449 9.30944 0
9.38779 6.87418 0
7.52638 4.64016 0
5.34052 2.77462 0
2.80068 1.48475 0
0 1 0
      </DataArray>
    </Points>
    <Cells>
      <DataArray type="Int32" Name="connectivity" format="ascii">
0 1
1 2
2 3
3 4
4 5
5 6
0 12
0 11
1 11
1 10
2 10
2 9
3 9
3 8
4 8
4 7
5 7
7 6
11 12
11 10
10 9
8 9
7 8
      </DataArray>
      <DataArray type="Int32" Name="offsets" format="ascii">
2
4
6
8
10
12
14
16
18
20
22
24
26
28
30
32
34
36
38
40
42
44
46
      </DataArray>
      <DataArray type="UInt8" Name="types" format="ascii">
4
4
4
4
4
4
4
4
4
4
4
4
4
4
4
4
4
4
4
4
4
4
4
      </DataArray>
    </Cells>
    <PointData>
      <DataArray type="Float64" NumberOfComponents="3" Name="Displacement" format="ascii">
0 0 0
0.0705581 0.537342 0
-0.157397 1.92359 0
-0.807908 3.9052 0
-1.8508 6.23451 0
-3.15166 8.716 0
-3.96917 9.32221 0
-3.95506 8.30944 0
-2.61221 5.87418 0
-1.47362 3.64016 0
-0.659476 1.77462 0
-0.199317 0.48475 0
0 0 0
      </DataArray> 
    </PointData>
    <CellData>
    </CellData>
  </Piece>
  </UnstructuredGrid>
</VTKFile>
