<?xml version="1.0"?>
<VTKFile type="UnstructuredGrid">
  <UnstructuredGrid>
  <Piece NumberOfPoints="13"  NumberOfCells="23">
    <Points>
      <DataArray type="Float64" NumberOfComponents="3" format="ascii">
0 0 0
2.99862 0.00457505 0
5.99723 0.00952276 0
8.99582 0.014757 0
11.9944 0.0201867 0
14.993 0.0254761 0
15.992 0.525987 0
14.9926 1.02571 0
11.994 1.02018 0
8.9955 1.01476 0
5.99699 1.00952 0
2.99849 1.00457 0
0 1 0
      </DataArray>
    </Points>
    <Cells>
      <DataArray type="Int32" Name="connectivity" format="ascii">
0 1
1 2
2 3
3 4
4 5
5 6
0 12
0 11
1 11
1 10
2 10
2 9
3 9
3 8
4 8
4 7
5 7
7 6
11 12
11 10
10 9
8 9
7 8
      </DataArray>
      <DataArray type="Int32" Name="offsets" format="ascii">
2
4
6
8
10
12
14
16
18
20
22
24
26
28
30
32
34
36
38
40
42
44
46
      </DataArray>
      <DataArray type="UInt8" Name="types" format="ascii">
4
4
4
4
4
4
4
4
4
4
4
4
4
4
4
4
4
4
4
4
4
4
4
      </DataArray>
    </Cells>
    <PointData>
      <DataArray type="Float64" NumberOfComponents="3" Name="Displacement" format="ascii">
0 0 0
-0.00137688 0.00457505 0
-0.00276856 0.00952276 0
-0.00417575 0.014757 0
-0.00559889 0.0201867 0
-0.0070373 0.0254761 0
-0.00796146 0.0259875 0
-0.00742889 0.0257143 0
-0.00597225 0.0201849 0
-0.0045002 0.0147553 0
-0.00301346 0.00952111 0
-0.001513 0.00457352 0
0 0 0
      </DataArray> 
    </PointData>
    <CellData>
    </CellData>
  </Piece>
  </UnstructuredGrid>
</VTKFile>
