<?xml version="1.0"?>
<VTKFile type="UnstructuredGrid">
  <UnstructuredGrid>
  <Piece NumberOfPoints="13"  NumberOfCells="23">
    <Points>
      <DataArray type="Float64" NumberOfComponents="3" format="ascii">
0 0 0
3.06491 0.74199 0
5.57557 2.60742 0
7.38845 5.11455 0
8.61481 7.91237 0
9.48533 10.796 0
9.32938 11.9082 0
8.54269 11.124 0
7.7058 8.31099 0
6.56571 5.661 0
4.92998 3.34545 0
2.71146 1.6479 0
0 1 0
      </DataArray>
    </Points>
    <Cells>
      <DataArray type="Int32" Name="connectivity" format="ascii">
0 1
1 2
2 3
3 4
4 5
5 6
0 12
0 11
1 11
1 10
2 10
2 9
3 9
3 8
4 8
4 7
5 7
7 6
11 12
11 10
10 9
8 9
7 8
      </DataArray>
      <DataArray type="Int32" Name="offsets" format="ascii">
2
4
6
8
10
12
14
16
18
20
22
24
26
28
30
32
34
36
38
40
42
44
46
      </DataArray>
      <DataArray type="UInt8" Name="types" format="ascii">
4
4
4
4
4
4
4
4
4
4
4
4
4
4
4
4
4
4
4
4
4
4
4
      </DataArray>
    </Cells>
    <PointData>
      <DataArray type="Float64" NumberOfComponents="3" Name="Displacement" format="ascii">
0 0 0
0.0649127 0.74199 0
-0.424426 2.60742 0
-1.61155 5.11455 0
-3.38519 7.91237 0
-5.51467 10.796 0
-6.67062 11.4082 0
-6.45731 10.124 0
-4.2942 7.31099 0
-2.43429 4.661 0
-1.07002 2.34545 0
-0.288537 0.647901 0
0 0 0
      </DataArray> 
    </PointData>
    <CellData>
    </CellData>
  </Piece>
  </UnstructuredGrid>
</VTKFile>
