<?xml version="1.0"?>
<VTKFile type="UnstructuredGrid">
  <UnstructuredGrid>
  <Piece NumberOfPoints="13"  NumberOfCells="23">
    <Points>
      <DataArray type="Float64" NumberOfComponents="3" format="ascii">
0 0 0
2.99734 0.0106113 0
5.9946 0.0235495 0
8.99176 0.0383353 0
11.9888 0.0544207 0
14.9858 0.070696 0
15.983 0.57343 0
14.9833 1.07119 0
11.9865 1.05441 0
8.98974 1.03832 0
5.99309 1.02354 0
2.99652 1.0106 0
0 1 0
      </DataArray>
    </Points>
    <Cells>
      <DataArray type="Int32" Name="connectivity" format="ascii">
0 1
1 2
2 3
3 4
4 5
5 6
0 12
0 11
1 11
1 10
2 10
2 9
3 9
3 8
4 8
4 7
5 7
7 6
11 12
11 10
10 9
8 9
7 8
      </DataArray>
      <DataArray type="Int32" Name="offsets" format="ascii">
2
4
6
8
10
12
14
16
18
20
22
24
26
28
30
32
34
36
38
40
42
44
46
      </DataArray>
      <DataArray type="UInt8" Name="types" format="ascii">
4
4
4
4
4
4
4
4
4
4
4
4
4
4
4
4
4
4
4
4
4
4
4
      </DataArray>
    </Cells>
    <PointData>
      <DataArray type="Float64" NumberOfComponents="3" Name="Displacement" format="ascii">
0 0 0
-0.00265661 0.0106113 0
-0.00540052 0.0235495 0
-0.00824231 0.0383353 0
-0.011188 0.0544207 0
-0.0142346 0.070696 0
-0.0170082 0.0734305 0
-0.016713 0.0711903 0
-0.0135336 0.0544069 0
-0.0102608 0.0383228 0
-0.00690532 0.0235391 0
-0.00348015 0.010603 0
0 0 0
      </DataArray> 
    </PointData>
    <CellData>
    </CellData>
  </Piece>
  </UnstructuredGrid>
</VTKFile>
