<?xml version="1.0"?>
<VTKFile type="UnstructuredGrid">
  <UnstructuredGrid>
  <Piece NumberOfPoints="13"  NumberOfCells="23">
    <Points>
      <DataArray type="Float64" NumberOfComponents="3" format="ascii">
0 0 0
2.99882 0.0343884 0
5.9964 0.0987711 0
8.9923 0.188463 0
11.9863 0.296953 0
14.9786 0.415322 0
15.9587 0.94859 0
14.9457 1.41567 0
11.9556 1.29633 0
8.96639 1.18799 0
5.97756 1.09848 0
2.98883 1.03426 0
0 1 0
      </DataArray>
    </Points>
    <Cells>
      <DataArray type="Int32" Name="connectivity" format="ascii">
0 1
1 2
2 3
3 4
4 5
5 6
0 12
0 11
1 11
1 10
2 10
2 9
3 9
3 8
4 8
4 7
5 7
7 6
11 12
11 10
10 9
8 9
7 8
      </DataArray>
      <DataArray type="Int32" Name="offsets" format="ascii">
2
4
6
8
10
12
14
16
18
20
22
24
26
28
30
32
34
36
38
40
42
44
46
      </DataArray>
      <DataArray type="UInt8" Name="types" format="ascii">
4
4
4
4
4
4
4
4
4
4
4
4
4
4
4
4
4
4
4
4
4
4
4
      </DataArray>
    </Cells>
    <PointData>
      <DataArray type="Float64" NumberOfComponents="3" Name="Displacement" format="ascii">
0 0 0
-0.00118354 0.0343884 0
-0.0036014 0.0987711 0
-0.00770275 0.188463 0
-0.0136779 0.296953 0
-0.0214028 0.415322 0
-0.0412968 0.44859 0
-0.0542671 0.415668 0
-0.0443586 0.296334 0
-0.0336088 0.187994 0
-0.0224399 0.0984836 0
-0.0111727 0.0342594 0
0 0 0
      </DataArray> 
    </PointData>
    <CellData>
    </CellData>
  </Piece>
  </UnstructuredGrid>
</VTKFile>
