<?xml version="1.0"?>
<VTKFile type="UnstructuredGrid">
  <UnstructuredGrid>
  <Piece NumberOfPoints="13"  NumberOfCells="23">
    <Points>
      <DataArray type="Float64" NumberOfComponents="3" format="ascii">
0 0 0
2.99737 0.0104533 0
5.99465 0.0231565 0
8.99184 0.0376446 0
11.9889 0.0533875 0
14.9859 0.0693015 0
15.9832 0.57195 0
14.9835 1.06979 0
11.9867 1.05337 0
8.98989 1.03763 0
5.9932 1.02315 0
2.99657 1.01045 0
0 1 0
      </DataArray>
    </Points>
    <Cells>
      <DataArray type="Int32" Name="connectivity" format="ascii">
0 1
1 2
2 3
3 4
4 5
5 6
0 12
0 11
1 11
1 10
2 10
2 9
3 9
3 8
4 8
4 7
5 7
7 6
11 12
11 10
10 9
8 9
7 8
      </DataArray>
      <DataArray type="Int32" Name="offsets" format="ascii">
2
4
6
8
10
12
14
16
18
20
22
24
26
28
30
32
34
36
38
40
42
44
46
      </DataArray>
      <DataArray type="UInt8" Name="types" format="ascii">
4
4
4
4
4
4
4
4
4
4
4
4
4
4
4
4
4
4
4
4
4
4
4
      </DataArray>
    </Cells>
    <PointData>
      <DataArray type="Float64" NumberOfComponents="3" Name="Displacement" format="ascii">
0 0 0
-0.00263212 0.0104533 0
-0.00534876 0.0231565 0
-0.00815997 0.0376446 0
-0.0110715 0.0533875 0
-0.0140804 0.0693015 0
-0.0167939 0.0719498 0
-0.0164759 0.0697901 0
-0.013339 0.0533743 0
-0.0101117 0.0376327 0
-0.00680424 0.0231464 0
-0.00342897 0.0104453 0
0 0 0
      </DataArray> 
    </PointData>
    <CellData>
    </CellData>
  </Piece>
  </UnstructuredGrid>
</VTKFile>
