<?xml version="1.0"?>
<VTKFile type="UnstructuredGrid">
  <UnstructuredGrid>
  <Piece NumberOfPoints="13"  NumberOfCells="23">
    <Points>
      <DataArray type="Float64" NumberOfComponents="3" format="ascii">
0 0 0
3.06381 0.756266 0
5.55214 2.65423 0
7.32358 5.19224 0
8.49688 8.01351 0
9.30928 10.9143 0
9.1312 12.0234 0
8.36037 11.2236 0
7.58058 8.39481 0
6.49201 5.72468 0
4.89751 3.38354 0
2.70499 1.65892 0
0 1 0
      </DataArray>
    </Points>
    <Cells>
      <DataArray type="Int32" Name="connectivity" format="ascii">
0 1
1 2
2 3
3 4
4 5
5 6
0 12
0 11
1 11
1 10
2 10
2 9
3 9
3 8
4 8
4 7
5 7
7 6
11 12
11 10
10 9
8 9
7 8
      </DataArray>
      <DataArray type="Int32" Name="offsets" format="ascii">
2
4
6
8
10
12
14
16
18
20
22
24
26
28
30
32
34
36
38
40
42
44
46
      </DataArray>
      <DataArray type="UInt8" Name="types" format="ascii">
4
4
4
4
4
4
4
4
4
4
4
4
4
4
4
4
4
4
4
4
4
4
4
      </DataArray>
    </Cells>
    <PointData>
      <DataArray type="Float64" NumberOfComponents="3" Name="Displacement" format="ascii">
0 0 0
0.0638108 0.756266 0
-0.447865 2.65423 0
-1.67642 5.19224 0
-3.50312 8.01351 0
-5.69072 10.9143 0
-6.8688 11.5234 0
-6.63963 10.2236 0
-4.41942 7.39481 0
-2.50799 4.72468 0
-1.10249 2.38354 0
-0.295007 0.658916 0
0 0 0
      </DataArray> 
    </PointData>
    <CellData>
    </CellData>
  </Piece>
  </UnstructuredGrid>
</VTKFile>
