<?xml version="1.0"?>
<VTKFile type="UnstructuredGrid">
  <UnstructuredGrid>
  <Piece NumberOfPoints="13"  NumberOfCells="23">
    <Points>
      <DataArray type="Float64" NumberOfComponents="3" format="ascii">
0 0 0
3.05151 0.872903 0
5.33024 3.03649 0
6.74372 5.7996 0
7.47717 8.77115 0
7.81817 11.7665 0
7.46714 12.8345 0
6.8328 11.9227 0
6.51457 9.00951 0
5.84935 6.21356 0
4.6054 3.68979 0
2.6511 1.74678 0
0 1 0
      </DataArray>
    </Points>
    <Cells>
      <DataArray type="Int32" Name="connectivity" format="ascii">
0 1
1 2
2 3
3 4
4 5
5 6
0 12
0 11
1 11
1 10
2 10
2 9
3 9
3 8
4 8
4 7
5 7
7 6
11 12
11 10
10 9
8 9
7 8
      </DataArray>
      <DataArray type="Int32" Name="offsets" format="ascii">
2
4
6
8
10
12
14
16
18
20
22
24
26
28
30
32
34
36
38
40
42
44
46
      </DataArray>
      <DataArray type="UInt8" Name="types" format="ascii">
4
4
4
4
4
4
4
4
4
4
4
4
4
4
4
4
4
4
4
4
4
4
4
      </DataArray>
    </Cells>
    <PointData>
      <DataArray type="Float64" NumberOfComponents="3" Name="Displacement" format="ascii">
0 0 0
0.0515115 0.872903 0
-0.669759 3.03649 0
-2.25628 5.7996 0
-4.52283 8.77115 0
-7.18183 11.7665 0
-8.53286 12.3345 0
-8.1672 10.9227 0
-5.48543 8.00951 0
-3.15065 5.21356 0
-1.3946 2.68979 0
-0.348896 0.746779 0
0 0 0
      </DataArray> 
    </PointData>
    <CellData>
    </CellData>
  </Piece>
  </UnstructuredGrid>
</VTKFile>
