<?xml version="1.0"?>
<VTKFile type="UnstructuredGrid">
  <UnstructuredGrid>
  <Piece NumberOfPoints="13"  NumberOfCells="23">
    <Points>
      <DataArray type="Float64" NumberOfComponents="3" format="ascii">
0 0 0
2.9983 0.00584286 0
5.99657 0.0123133 0
8.99482 0.0192698 0
11.993 0.0265601 0
14.9912 0.0337217 0
15.99 0.534533 0
14.9906 1.03402 0
11.9924 1.02656 0
8.99428 1.01927 0
5.99616 1.01231 0
2.99807 1.00584 0
0 1 0
      </DataArray>
    </Points>
    <Cells>
      <DataArray type="Int32" Name="connectivity" format="ascii">
0 1
1 2
2 3
3 4
4 5
5 6
0 12
0 11
1 11
1 10
2 10
2 9
3 9
3 8
4 8
4 7
5 7
7 6
11 12
11 10
10 9
8 9
7 8
      </DataArray>
      <DataArray type="Int32" Name="offsets" format="ascii">
2
4
6
8
10
12
14
16
18
20
22
24
26
28
30
32
34
36
38
40
42
44
46
      </DataArray>
      <DataArray type="UInt8" Name="types" format="ascii">
4
4
4
4
4
4
4
4
4
4
4
4
4
4
4
4
4
4
4
4
4
4
4
      </DataArray>
    </Cells>
    <PointData>
      <DataArray type="Float64" NumberOfComponents="3" Name="Displacement" format="ascii">
0 0 0
-0.00170087 0.00584286 0
-0.00342632 0.0123133 0
-0.00517791 0.0192698 0
-0.00695653 0.0265601 0
-0.00876117 0.0337217 0
-0.0100049 0.0345335 0
-0.00942255 0.0340197 0
-0.00758608 0.026557 0
-0.00572379 0.0192668 0
-0.00383725 0.0123105 0
-0.00192849 0.00584037 0
0 0 0
      </DataArray> 
    </PointData>
    <CellData>
    </CellData>
  </Piece>
  </UnstructuredGrid>
</VTKFile>
