<?xml version="1.0"?>
<VTKFile type="UnstructuredGrid">
  <UnstructuredGrid>
  <Piece NumberOfPoints="13"  NumberOfCells="23">
    <Points>
      <DataArray type="Float64" NumberOfComponents="3" format="ascii">
0 0 0
3.06986 0.510386 0
5.86892 1.83122 0
8.28015 3.73214 0
10.3269 5.98045 0
12.1315 8.38549 0
12.3609 9.48265 0
11.3539 9.01244 0
9.59137 6.6501 0
7.63957 4.48982 0
5.38792 2.69541 0
2.81192 1.46253 0
0 1 0
      </DataArray>
    </Points>
    <Cells>
      <DataArray type="Int32" Name="connectivity" format="ascii">
0 1
1 2
2 3
3 4
4 5
5 6
0 12
0 11
1 11
1 10
2 10
2 9
3 9
3 8
4 8
4 7
5 7
7 6
11 12
11 10
10 9
8 9
7 8
      </DataArray>
      <DataArray type="Int32" Name="offsets" format="ascii">
2
4
6
8
10
12
14
16
18
20
22
24
26
28
30
32
34
36
38
40
42
44
46
      </DataArray>
      <DataArray type="UInt8" Name="types" format="ascii">
4
4
4
4
4
4
4
4
4
4
4
4
4
4
4
4
4
4
4
4
4
4
4
      </DataArray>
    </Cells>
    <PointData>
      <DataArray type="Float64" NumberOfComponents="3" Name="Displacement" format="ascii">
0 0 0
0.0698564 0.510386 0
-0.131082 1.83122 0
-0.719849 3.73214 0
-1.67307 5.98045 0
-2.86847 8.38549 0
-3.63913 8.98265 0
-3.64613 8.01244 0
-2.40863 5.6501 0
-1.36043 3.48982 0
-0.612083 1.69541 0
-0.188081 0.462526 0
0 0 0
      </DataArray> 
    </PointData>
    <CellData>
    </CellData>
  </Piece>
  </UnstructuredGrid>
</VTKFile>
