<?xml version="1.0"?>
<VTKFile type="UnstructuredGrid">
  <UnstructuredGrid>
  <Piece NumberOfPoints="13"  NumberOfCells="23">
    <Points>
      <DataArray type="Float64" NumberOfComponents="3" format="ascii">
0 0 0
2.99747 0.0266817 0
5.99425 0.0716185 0
8.99012 0.131807 0
11.985 0.203228 0
14.9789 0.280168 0
15.966 0.800525 0
14.959 1.28081 0
11.9664 1.20297 0
8.97434 1.1316 0
5.98273 1.07149 0
2.99133 1.02661 0
0 1 0
      </DataArray>
    </Points>
    <Cells>
      <DataArray type="Int32" Name="connectivity" format="ascii">
0 1
1 2
2 3
3 4
4 5
5 6
0 12
0 11
1 11
1 10
2 10
2 9
3 9
3 8
4 8
4 7
5 7
7 6
11 12
11 10
10 9
8 9
7 8
      </DataArray>
      <DataArray type="Int32" Name="offsets" format="ascii">
2
4
6
8
10
12
14
16
18
20
22
24
26
28
30
32
34
36
38
40
42
44
46
      </DataArray>
      <DataArray type="UInt8" Name="types" format="ascii">
4
4
4
4
4
4
4
4
4
4
4
4
4
4
4
4
4
4
4
4
4
4
4
      </DataArray>
    </Cells>
    <PointData>
      <DataArray type="Float64" NumberOfComponents="3" Name="Displacement" format="ascii">
0 0 0
-0.00252644 0.0266817 0
-0.00574962 0.0716185 0
-0.009882 0.131807 0
-0.0150235 0.203228 0
-0.0211291 0.280168 0
-0.0339813 0.300525 0
-0.0410348 0.280813 0
-0.0336487 0.202966 0
-0.025659 0.131602 0
-0.0172714 0.0714858 0
-0.00866956 0.0266145 0
0 0 0
      </DataArray> 
    </PointData>
    <CellData>
    </CellData>
  </Piece>
  </UnstructuredGrid>
</VTKFile>
