<?xml version="1.0"?>
<VTKFile type="UnstructuredGrid">
  <UnstructuredGrid>
  <Piece NumberOfPoints="13"  NumberOfCells="23">
    <Points>
      <DataArray type="Float64" NumberOfComponents="3" format="ascii">
0 0 0
2.99866 0.00445119 0
5.9973 0.00925405 0
8.99593 0.0143271 0
11.9945 0.0195843 0
14.9931 0.0247015 0
15.9922 0.525188 0
14.9928 1.02493 0
11.9942 1.01958 0
8.99562 1.01433 0
5.99707 1.00925 0
2.99853 1.00445 0
0 1 0
      </DataArray>
    </Points>
    <Cells>
      <DataArray type="Int32" Name="connectivity" format="ascii">
0 1
1 2
2 3
3 4
4 5
5 6
0 12
0 11
1 11
1 10
2 10
2 9
3 9
3 8
4 8
4 7
5 7
7 6
11 12
11 10
10 9
8 9
7 8
      </DataArray>
      <DataArray type="Int32" Name="offsets" format="ascii">
2
4
6
8
10
12
14
16
18
20
22
24
26
28
30
32
34
36
38
40
42
44
46
      </DataArray>
      <DataArray type="UInt8" Name="types" format="ascii">
4
4
4
4
4
4
4
4
4
4
4
4
4
4
4
4
4
4
4
4
4
4
4
      </DataArray>
    </Cells>
    <PointData>
      <DataArray type="Float64" NumberOfComponents="3" Name="Displacement" format="ascii">
0 0 0
-0.00134379 0.00445119 0
-0.00270157 0.00925405 0
-0.00407399 0.0143271 0
-0.00546144 0.0195843 0
-0.0068633 0.0247015 0
-0.0077579 0.0251876 0
-0.00723271 0.0249337 0
-0.00581372 0.0195826 0
-0.00438018 0.0143255 0
-0.00293276 0.00925249 0
-0.00147233 0.00444975 0
0 0 0
      </DataArray> 
    </PointData>
    <CellData>
    </CellData>
  </Piece>
  </UnstructuredGrid>
</VTKFile>
