<?xml version="1.0"?>
<VTKFile type="UnstructuredGrid">
  <UnstructuredGrid>
  <Piece NumberOfPoints="13"  NumberOfCells="23">
    <Points>
      <DataArray type="Float64" NumberOfComponents="3" format="ascii">
0 0 0
3.03583 0.979649 0
5.04491 3.40793 0
6.08037 6.34021 0
6.38474 9.38946 0
6.28445 12.4044 0
5.78129 13.4106 0
5.28715 12.4156 0
5.39861 9.48913 0
5.14072 6.63285 0
4.25614 3.97712 0
2.60105 1.82144 0
0 1 0
      </DataArray>
    </Points>
    <Cells>
      <DataArray type="Int32" Name="connectivity" format="ascii">
0 1
1 2
2 3
3 4
4 5
5 6
0 12
0 11
1 11
1 10
2 10
2 9
3 9
3 8
4 8
4 7
5 7
7 6
11 12
11 10
10 9
8 9
7 8
      </DataArray>
      <DataArray type="Int32" Name="offsets" format="ascii">
2
4
6
8
10
12
14
16
18
20
22
24
26
28
30
32
34
36
38
40
42
44
46
      </DataArray>
      <DataArray type="UInt8" Name="types" format="ascii">
4
4
4
4
4
4
4
4
4
4
4
4
4
4
4
4
4
4
4
4
4
4
4
      </DataArray>
    </Cells>
    <PointData>
      <DataArray type="Float64" NumberOfComponents="3" Name="Displacement" format="ascii">
0 0 0
0.0358252 0.979649 0
-0.955088 3.40793 0
-2.91963 6.34021 0
-5.61526 9.38946 0
-8.71555 12.4044 0
-10.2187 12.9106 0
-9.71285 11.4156 0
-6.60139 8.48913 0
-3.85928 5.63285 0
-1.74386 2.97712 0
-0.398948 0.821436 0
0 0 0
      </DataArray> 
    </PointData>
    <CellData>
    </CellData>
  </Piece>
  </UnstructuredGrid>
</VTKFile>
