<?xml version="1.0"?>
<VTKFile type="UnstructuredGrid">
  <UnstructuredGrid>
  <Piece NumberOfPoints="13"  NumberOfCells="23">
    <Points>
      <DataArray type="Float64" NumberOfComponents="3" format="ascii">
0 0 0
2.9973 0.010931 0
5.9945 0.0243496 0
8.9916 0.0397465 0
11.9886 0.0565369 0
14.9855 0.0735568 0
15.9826 0.576471 0
14.9828 1.07406 0
11.9861 1.05652 0
8.98944 1.03973 0
5.99289 1.02434 0
2.99642 1.01092 0
0 1 0
      </DataArray>
    </Points>
    <Cells>
      <DataArray type="Int32" Name="connectivity" format="ascii">
0 1
1 2
2 3
3 4
4 5
5 6
0 12
0 11
1 11
1 10
2 10
2 9
3 9
3 8
4 8
4 7
5 7
7 6
11 12
11 10
10 9
8 9
7 8
      </DataArray>
      <DataArray type="Int32" Name="offsets" format="ascii">
2
4
6
8
10
12
14
16
18
20
22
24
26
28
30
32
34
36
38
40
42
44
46
      </DataArray>
      <DataArray type="UInt8" Name="types" format="ascii">
4
4
4
4
4
4
4
4
4
4
4
4
4
4
4
4
4
4
4
4
4
4
4
      </DataArray>
    </Cells>
    <PointData>
      <DataArray type="Float64" NumberOfComponents="3" Name="Displacement" format="ascii">
0 0 0
-0.00270457 0.010931 0
-0.00550226 0.0243496 0
-0.00840474 0.0397465 0
-0.0114186 0.0565369 0
-0.0145408 0.0735568 0
-0.0174382 0.0764708 0
-0.0171922 0.0740624 0
-0.0139271 0.056522 0
-0.0105624 0.0397331 0
-0.00710982 0.0243384 0
-0.00358368 0.0109221 0
0 0 0
      </DataArray> 
    </PointData>
    <CellData>
    </CellData>
  </Piece>
  </UnstructuredGrid>
</VTKFile>
