<?xml version="1.0"?>
<VTKFile type="UnstructuredGrid">
  <UnstructuredGrid>
  <Piece NumberOfPoints="13"  NumberOfCells="23">
    <Points>
      <DataArray type="Float64" NumberOfComponents="3" format="ascii">
0 0 0
2.99715 0.0120077 0
5.99419 0.0270917 0
8.99109 0.0446342 0
11.9879 0.0639169 0
14.9845 0.0835815 0
15.9811 0.587151 0
14.9812 1.08412 0
11.9848 1.0639 0
8.98842 1.04462 0
5.9922 1.02708 0
2.99607 1.012 0
0 1 0
      </DataArray>
    </Points>
    <Cells>
      <DataArray type="Int32" Name="connectivity" format="ascii">
0 1
1 2
2 3
3 4
4 5
5 6
0 12
0 11
1 11
1 10
2 10
2 9
3 9
3 8
4 8
4 7
5 7
7 6
11 12
11 10
10 9
8 9
7 8
      </DataArray>
      <DataArray type="Int32" Name="offsets" format="ascii">
2
4
6
8
10
12
14
16
18
20
22
24
26
28
30
32
34
36
38
40
42
44
46
      </DataArray>
      <DataArray type="UInt8" Name="types" format="ascii">
4
4
4
4
4
4
4
4
4
4
4
4
4
4
4
4
4
4
4
4
4
4
4
      </DataArray>
    </Cells>
    <PointData>
      <DataArray type="Float64" NumberOfComponents="3" Name="Displacement" format="ascii">
0 0 0
-0.00285029 0.0120077 0
-0.00581497 0.0270917 0
-0.0089099 0.0446342 0
-0.012144 0.0639169 0
-0.0155135 0.0835815 0
-0.0188501 0.0871514 0
-0.0187995 0.0841232 0
-0.0152493 0.0638974 0
-0.0115768 0.044617 0
-0.00779804 0.0270776 0
-0.00393207 0.011997 0
0 0 0
      </DataArray> 
    </PointData>
    <CellData>
    </CellData>
  </Piece>
  </UnstructuredGrid>
</VTKFile>
