<?xml version="1.0"?>
<VTKFile type="UnstructuredGrid">
  <UnstructuredGrid>
  <Piece NumberOfPoints="13"  NumberOfCells="23">
    <Points>
      <DataArray type="Float64" NumberOfComponents="3" format="ascii">
0 0 0
2.99799 0.0299896 0
5.99508 0.0830804 0
8.99095 0.155568 0
11.9855 0.242403 0
14.9787 0.336542 0
15.963 0.862237 0
14.9535 1.33709 0
11.9619 1.24201 0
8.97099 1.15527 0
5.98053 1.08289 0
2.99026 1.0299 0
0 1 0
      </DataArray>
    </Points>
    <Cells>
      <DataArray type="Int32" Name="connectivity" format="ascii">
0 1
1 2
2 3
3 4
4 5
5 6
0 12
0 11
1 11
1 10
2 10
2 9
3 9
3 8
4 8
4 7
5 7
7 6
11 12
11 10
10 9
8 9
7 8
      </DataArray>
      <DataArray type="Int32" Name="offsets" format="ascii">
2
4
6
8
10
12
14
16
18
20
22
24
26
28
30
32
34
36
38
40
42
44
46
      </DataArray>
      <DataArray type="UInt8" Name="types" format="ascii">
4
4
4
4
4
4
4
4
4
4
4
4
4
4
4
4
4
4
4
4
4
4
4
      </DataArray>
    </Cells>
    <PointData>
      <DataArray type="Float64" NumberOfComponents="3" Name="Displacement" format="ascii">
0 0 0
-0.00200811 0.0299896 0
-0.00492448 0.0830804 0
-0.00905122 0.155568 0
-0.0145241 0.242403 0
-0.0212708 0.336542 0
-0.0370264 0.362237 0
-0.0465217 0.33709 0
-0.038124 0.242011 0
-0.0290105 0.155267 0
-0.0194697 0.0828906 0
-0.00974216 0.029899 0
0 0 0
      </DataArray> 
    </PointData>
    <CellData>
    </CellData>
  </Piece>
  </UnstructuredGrid>
</VTKFile>
