<?xml version="1.0"?>
<VTKFile type="UnstructuredGrid">
  <UnstructuredGrid>
  <Piece NumberOfPoints="13"  NumberOfCells="23">
    <Points>
      <DataArray type="Float64" NumberOfComponents="3" format="ascii">
0 0 0
2.99699 0.0223845 0
5.99351 0.057342 0
8.98944 0.102713 0
11.9847 0.155695 0
14.9794 0.21215 0
15.97 0.726235 0
14.9657 1.21285 0
11.9719 1.15555 0
8.97857 1.1026 0
5.98554 1.05726 0
2.99272 1.02234 0
0 1 0
      </DataArray>
    </Points>
    <Cells>
      <DataArray type="Int32" Name="connectivity" format="ascii">
0 1
1 2
2 3
3 4
4 5
5 6
0 12
0 11
1 11
1 10
2 10
2 9
3 9
3 8
4 8
4 7
5 7
7 6
11 12
11 10
10 9
8 9
7 8
      </DataArray>
      <DataArray type="Int32" Name="offsets" format="ascii">
2
4
6
8
10
12
14
16
18
20
22
24
26
28
30
32
34
36
38
40
42
44
46
      </DataArray>
      <DataArray type="UInt8" Name="types" format="ascii">
4
4
4
4
4
4
4
4
4
4
4
4
4
4
4
4
4
4
4
4
4
4
4
      </DataArray>
    </Cells>
    <PointData>
      <DataArray type="Float64" NumberOfComponents="3" Name="Displacement" format="ascii">
0 0 0
-0.00301163 0.0223845 0
-0.00648952 0.057342 0
-0.0105563 0.102713 0
-0.0152731 0.155695 0
-0.0206177 0.21215 0
-0.0300456 0.226235 0
-0.0342704 0.212851 0
-0.0280724 0.155553 0
-0.0214281 0.102598 0
-0.014458 0.0572642 0
-0.00728001 0.022341 0
0 0 0
      </DataArray> 
    </PointData>
    <CellData>
    </CellData>
  </Piece>
  </UnstructuredGrid>
</VTKFile>
