<?xml version="1.0"?>
<VTKFile type="UnstructuredGrid">
  <UnstructuredGrid>
  <Piece NumberOfPoints="13"  NumberOfCells="23">
    <Points>
      <DataArray type="Float64" NumberOfComponents="3" format="ascii">
0 0 0
3.00546 0.0625031 0
6.00647 0.203902 0
9.00092 0.412649 0
11.9881 0.671843 0
14.9691 0.959383 0
15.9186 1.54551 0
14.8822 1.95646 0
11.9073 1.66816 0
8.93291 1.40996 0
5.95729 1.20237 0
2.97958 1.06192 0
0 1 0
      </DataArray>
    </Points>
    <Cells>
      <DataArray type="Int32" Name="connectivity" format="ascii">
0 1
1 2
2 3
3 4
4 5
5 6
0 12
0 11
1 11
1 10
2 10
2 9
3 9
3 8
4 8
4 7
5 7
7 6
11 12
11 10
10 9
8 9
7 8
      </DataArray>
      <DataArray type="Int32" Name="offsets" format="ascii">
2
4
6
8
10
12
14
16
18
20
22
24
26
28
30
32
34
36
38
40
42
44
46
      </DataArray>
      <DataArray type="UInt8" Name="types" format="ascii">
4
4
4
4
4
4
4
4
4
4
4
4
4
4
4
4
4
4
4
4
4
4
4
      </DataArray>
    </Cells>
    <PointData>
      <DataArray type="Float64" NumberOfComponents="3" Name="Displacement" format="ascii">
0 0 0
0.00545958 0.0625031 0
0.00646943 0.203902 0
0.000918716 0.412649 0
-0.0118608 0.671843 0
-0.0309122 0.959383 0
-0.0813878 1.04551 0
-0.117817 0.956458 0
-0.0927445 0.668163 0
-0.0670938 0.409957 0
-0.0427091 0.202365 0
-0.0204222 0.0619152 0
0 0 0
      </DataArray> 
    </PointData>
    <CellData>
    </CellData>
  </Piece>
  </UnstructuredGrid>
</VTKFile>
