<?xml version="1.0"?>
<VTKFile type="UnstructuredGrid">
  <UnstructuredGrid>
  <Piece NumberOfPoints="13"  NumberOfCells="23">
    <Points>
      <DataArray type="Float64" NumberOfComponents="3" format="ascii">
0 0 0
3.00048 0.042064 0
5.99904 0.126926 0
8.9949 0.248104 0
11.9878 0.396376 0
14.9779 0.559359 0
15.9502 1.10662 0
14.9309 1.55915 0
11.9439 1.3952 0
8.95796 1.24723 0
5.97225 1.12641 0
2.98632 1.04185 0
0 1 0
      </DataArray>
    </Points>
    <Cells>
      <DataArray type="Int32" Name="connectivity" format="ascii">
0 1
1 2
2 3
3 4
4 5
5 6
0 12
0 11
1 11
1 10
2 10
2 9
3 9
3 8
4 8
4 7
5 7
7 6
11 12
11 10
10 9
8 9
7 8
      </DataArray>
      <DataArray type="Int32" Name="offsets" format="ascii">
2
4
6
8
10
12
14
16
18
20
22
24
26
28
30
32
34
36
38
40
42
44
46
      </DataArray>
      <DataArray type="UInt8" Name="types" format="ascii">
4
4
4
4
4
4
4
4
4
4
4
4
4
4
4
4
4
4
4
4
4
4
4
      </DataArray>
    </Cells>
    <PointData>
      <DataArray type="Float64" NumberOfComponents="3" Name="Displacement" format="ascii">
0 0 0
0.000483222 0.042064 0
-0.000955187 0.126926 0
-0.00509614 0.248104 0
-0.012241 0.396376 0
-0.0221269 0.559359 0
-0.0497953 0.60662 0
-0.0691469 0.559149 0
-0.056078 0.395201 0
-0.0420419 0.247228 0
-0.0277539 0.126406 0
-0.0136803 0.0418465 0
0 0 0
      </DataArray> 
    </PointData>
    <CellData>
    </CellData>
  </Piece>
  </UnstructuredGrid>
</VTKFile>
