<?xml version="1.0"?>
<VTKFile type="UnstructuredGrid">
  <UnstructuredGrid>
  <Piece NumberOfPoints="13"  NumberOfCells="23">
    <Points>
      <DataArray type="Float64" NumberOfComponents="3" format="ascii">
0 0 0
2.99742 0.010141 0
5.99476 0.0223839 0
8.99201 0.0362918 0
11.9892 0.0513685 0
14.9862 0.0665812 0
15.9836 0.569064 0
14.984 1.06706 0
11.987 1.05136 0
8.99018 1.03628 0
5.9934 1.02237 0
2.99667 1.01013 0
0 1 0
      </DataArray>
    </Points>
    <Cells>
      <DataArray type="Int32" Name="connectivity" format="ascii">
0 1
1 2
2 3
3 4
4 5
5 6
0 12
0 11
1 11
1 10
2 10
2 9
3 9
3 8
4 8
4 7
5 7
7 6
11 12
11 10
10 9
8 9
7 8
      </DataArray>
      <DataArray type="Int32" Name="offsets" format="ascii">
2
4
6
8
10
12
14
16
18
20
22
24
26
28
30
32
34
36
38
40
42
44
46
      </DataArray>
      <DataArray type="UInt8" Name="types" format="ascii">
4
4
4
4
4
4
4
4
4
4
4
4
4
4
4
4
4
4
4
4
4
4
4
      </DataArray>
    </Cells>
    <PointData>
      <DataArray type="Float64" NumberOfComponents="3" Name="Displacement" format="ascii">
0 0 0
-0.0025822 0.010141 0
-0.00524354 0.0223839 0
-0.00799313 0.0362918 0
-0.0108362 0.0513685 0
-0.0137699 0.0665812 0
-0.0163665 0.069064 0
-0.0160064 0.0670584 0
-0.0129539 0.0513563 0
-0.00981679 0.0362807 0
-0.00660431 0.0223745 0
-0.00332775 0.0101335 0
0 0 0
      </DataArray> 
    </PointData>
    <CellData>
    </CellData>
  </Piece>
  </UnstructuredGrid>
</VTKFile>
