<?xml version="1.0"?>
<VTKFile type="UnstructuredGrid">
  <UnstructuredGrid>
  <Piece NumberOfPoints="13"  NumberOfCells="23">
    <Points>
      <DataArray type="Float64" NumberOfComponents="3" format="ascii">
0 0 0
3.04603 0.257003 0
6.01858 0.932407 0
8.87773 1.95133 0
11.6197 3.21414 0
14.2753 4.60978 0
14.943 5.50657 0
13.8301 5.50519 0
11.2045 4.12114 0
8.5263 2.88433 0
5.76286 1.89549 0
2.91131 1.24407 0
0 1 0
      </DataArray>
    </Points>
    <Cells>
      <DataArray type="Int32" Name="connectivity" format="ascii">
0 1
1 2
2 3
3 4
4 5
5 6
0 12
0 11
1 11
1 10
2 10
2 9
3 9
3 8
4 8
4 7
5 7
7 6
11 12
11 10
10 9
8 9
7 8
      </DataArray>
      <DataArray type="Int32" Name="offsets" format="ascii">
2
4
6
8
10
12
14
16
18
20
22
24
26
28
30
32
34
36
38
40
42
44
46
      </DataArray>
      <DataArray type="UInt8" Name="types" format="ascii">
4
4
4
4
4
4
4
4
4
4
4
4
4
4
4
4
4
4
4
4
4
4
4
      </DataArray>
    </Cells>
    <PointData>
      <DataArray type="Float64" NumberOfComponents="3" Name="Displacement" format="ascii">
0 0 0
0.0460269 0.257003 0
0.0185828 0.932407 0
-0.12227 1.95133 0
-0.380314 3.21414 0
-0.724695 4.60978 0
-1.05702 5.00657 0
-1.16993 4.50519 0
-0.795546 3.12114 0
-0.473703 1.88433 0
-0.237143 0.895491 0
-0.0886872 0.244075 0
0 0 0
      </DataArray> 
    </PointData>
    <CellData>
    </CellData>
  </Piece>
  </UnstructuredGrid>
</VTKFile>
