<?xml version="1.0"?>
<VTKFile type="UnstructuredGrid">
  <UnstructuredGrid>
  <Piece NumberOfPoints="13"  NumberOfCells="23">
    <Points>
      <DataArray type="Float64" NumberOfComponents="3" format="ascii">
0 0 0
2.99913 0.00276613 0
5.99826 0.00566243 0
8.99738 0.00865777 0
11.9965 0.01172 0
14.9956 0.014667 0
15.9951 0.514877 0
14.9955 1.01481 0
11.9964 1.01172 0
8.99726 1.00866 0
5.99817 1.00566 0
2.99908 1.00277 0
0 1 0
      </DataArray>
    </Points>
    <Cells>
      <DataArray type="Int32" Name="connectivity" format="ascii">
0 1
1 2
2 3
3 4
4 5
5 6
0 12
0 11
1 11
1 10
2 10
2 9
3 9
3 8
4 8
4 7
5 7
7 6
11 12
11 10
10 9
8 9
7 8
      </DataArray>
      <DataArray type="Int32" Name="offsets" format="ascii">
2
4
6
8
10
12
14
16
18
20
22
24
26
28
30
32
34
36
38
40
42
44
46
      </DataArray>
      <DataArray type="UInt8" Name="types" format="ascii">
4
4
4
4
4
4
4
4
4
4
4
4
4
4
4
4
4
4
4
4
4
4
4
      </DataArray>
    </Cells>
    <PointData>
      <DataArray type="Float64" NumberOfComponents="3" Name="Displacement" format="ascii">
0 0 0
-0.00086946 0.00276613 0
-0.0017442 0.00566243 0
-0.00262437 0.00865777 0
-0.00351006 0.01172 0
-0.00440101 0.014667 0
-0.00492071 0.0148774 0
-0.00453721 0.014815 0
-0.00364024 0.0117193 0
-0.00273786 0.00865717 0
-0.00183021 0.00566184 0
-0.000917508 0.00276557 0
0 0 0
      </DataArray> 
    </PointData>
    <CellData>
    </CellData>
  </Piece>
  </UnstructuredGrid>
</VTKFile>
