<?xml version="1.0"?>
<VTKFile type="UnstructuredGrid">
  <UnstructuredGrid>
  <Piece NumberOfPoints="13"  NumberOfCells="23">
    <Points>
      <DataArray type="Float64" NumberOfComponents="3" format="ascii">
0 0 0
2.99733 0.0106907 0
5.99457 0.0237478 0
8.99172 0.0386843 0
11.9888 0.0549435 0
14.9857 0.0714021 0
15.9829 0.574181 0
14.9832 1.0719 0
11.9864 1.05493 0
8.98966 1.03867 0
5.99304 1.02374 0
2.99649 1.01068 0
0 1 0
      </DataArray>
    </Points>
    <Cells>
      <DataArray type="Int32" Name="connectivity" format="ascii">
0 1
1 2
2 3
3 4
4 5
5 6
0 12
0 11
1 11
1 10
2 10
2 9
3 9
3 8
4 8
4 7
5 7
7 6
11 12
11 10
10 9
8 9
7 8
      </DataArray>
      <DataArray type="Int32" Name="offsets" format="ascii">
2
4
6
8
10
12
14
16
18
20
22
24
26
28
30
32
34
36
38
40
42
44
46
      </DataArray>
      <DataArray type="UInt8" Name="types" format="ascii">
4
4
4
4
4
4
4
4
4
4
4
4
4
4
4
4
4
4
4
4
4
4
4
      </DataArray>
    </Cells>
    <PointData>
      <DataArray type="Float64" NumberOfComponents="3" Name="Displacement" format="ascii">
0 0 0
-0.00266872 0.0106907 0
-0.00542618 0.0237478 0
-0.00828321 0.0386843 0
-0.011246 0.0549435 0
-0.0143114 0.0714021 0
-0.0171155 0.0741805 0
-0.0168322 0.0718992 0
-0.0136314 0.0549294 0
-0.0103358 0.0386716 0
-0.00695615 0.0237371 0
-0.00350588 0.0106823 0
0 0 0
      </DataArray> 
    </PointData>
    <CellData>
    </CellData>
  </Piece>
  </UnstructuredGrid>
</VTKFile>
