<?xml version="1.0"?>
<VTKFile type="UnstructuredGrid">
  <UnstructuredGrid>
  <Piece NumberOfPoints="4"  NumberOfCells="3">
    <Points>
      <DataArray type="Float64" NumberOfComponents="3" format="ascii">
0 0 0
30 -10 0
70 0 0
30 -30.1196 0
      </DataArray>
    </Points>
    <Cells>
      <DataArray type="Int32" Name="connectivity" format="ascii">
0 3
1 3
2 3
      </DataArray>
      <DataArray type="Int32" Name="offsets" format="ascii">
2
4
6
      </DataArray>
      <DataArray type="UInt8" Name="types" format="ascii">
4
4
4
      </DataArray>
    </Cells>
    <PointData>
      <DataArray type="Float64" NumberOfComponents="3" Name="Displacement" format="ascii">
0 0 0
0 0 0
0 0 0
0 -0.119612 0
      </DataArray> 
    </PointData>
    <CellData>
    </CellData>
  </Piece>
  </UnstructuredGrid>
</VTKFile>
