<?xml version="1.0"?>
<VTKFile type="UnstructuredGrid">
  <UnstructuredGrid>
  <Piece NumberOfPoints="42"  NumberOfCells="81">
    <Points>
      <DataArray type="Float64" NumberOfComponents="3" format="ascii">
0 0 0
0.299894 -0.000127133 0
0.599794 -0.000465752 0
0.899701 -0.00100348 0
1.19961 -0.00172824 0
1.49954 -0.00262462 0
1.79946 -0.00367738 0
2.0994 -0.00487185 0
2.39934 -0.00619012 0
2.69929 -0.00761424 0
2.99925 -0.00912795 0
3.29922 -0.0107159 0
3.59919 -0.0123623 0
3.89916 -0.0140551 0
4.19914 -0.0157878 0
4.49912 -0.0175531 0
4.7991 -0.019346 0
5.09908 -0.0211641 0
5.39907 -0.0230047 0
5.69906 -0.0248645 0
5.99905 -0.026733 0
0 0.3 0
0.300112 0.299877 0
0.600217 0.299538 0
0.900316 0.299 0
1.20041 0.298275 0
1.50049 0.297379 0
1.80057 0.296326 0
2.10064 0.295131 0
2.4007 0.293812 0
2.70075 0.292387 0
3.00079 0.290873 0
3.30082 0.289284 0
3.60085 0.287636 0
3.90087 0.285942 0
4.20088 0.284209 0
4.50089 0.282443 0
4.8009 0.28065 0
5.10091 0.278832 0
5.40091 0.276991 0
5.70092 0.275132 0
6.00091 0.273262 0
      </DataArray>
    </Points>
    <Cells>
      <DataArray type="Int32" Name="connectivity" format="ascii">
0 1
1 2
2 3
3 4
4 5
5 6
6 7
7 8
8 9
9 10
10 11
11 12
12 13
13 14
14 15
15 16
16 17
17 18
18 19
19 20
21 22
22 23
23 24
24 25
25 26
26 27
27 28
28 29
29 30
30 31
31 32
32 33
33 34
34 35
35 36
36 37
37 38
38 39
39 40
40 41
0 21
0 22
1 22
1 23
2 23
2 24
3 24
3 25
4 25
4 26
5 26
5 27
6 27
6 28
7 28
7 29
8 29
8 30
9 30
9 31
10 31
10 32
11 32
11 33
12 33
12 34
13 34
13 35
14 35
14 36
15 36
15 37
16 37
16 38
17 38
17 39
18 39
18 40
19 40
19 41
20 41
      </DataArray>
      <DataArray type="Int32" Name="offsets" format="ascii">
2
4
6
8
10
12
14
16
18
20
22
24
26
28
30
32
34
36
38
40
42
44
46
48
50
52
54
56
58
60
62
64
66
68
70
72
74
76
78
80
82
84
86
88
90
92
94
96
98
100
102
104
106
108
110
112
114
116
118
120
122
124
126
128
130
132
134
136
138
140
142
144
146
148
150
152
154
156
158
160
162
      </DataArray>
      <DataArray type="UInt8" Name="types" format="ascii">
4
4
4
4
4
4
4
4
4
4
4
4
4
4
4
4
4
4
4
4
4
4
4
4
4
4
4
4
4
4
4
4
4
4
4
4
4
4
4
4
4
4
4
4
4
4
4
4
4
4
4
4
4
4
4
4
4
4
4
4
4
4
4
4
4
4
4
4
4
4
4
4
4
4
4
4
4
4
4
4
4
      </DataArray>
    </Cells>
    <PointData>
      <DataArray type="Float64" NumberOfComponents="3" Name="Displacement" format="ascii">
0 0 0
-0.000106011 -0.000127133 0
-0.000205662 -0.000465752 0
-0.000298835 -0.00100348 0
-0.000385093 -0.00172824 0
-0.000464184 -0.00262462 0
-0.000536146 -0.00367738 0
-0.000600244 -0.00487185 0
-0.000656352 -0.00619012 0
-0.000705022 -0.00761424 0
-0.000746653 -0.00912795 0
-0.00078168 -0.0107159 0
-0.000811334 -0.0123623 0
-0.00083719 -0.0140551 0
-0.000859882 -0.0157878 0
-0.000880119 -0.0175531 0
-0.000898495 -0.019346 0
-0.000915094 -0.0211641 0
-0.000929235 -0.0230047 0
-0.000939883 -0.0248645 0
-0.000945632 -0.026733 0
0 0 0
0.000112015 -0.000123297 0
0.000217371 -0.000462084 0
0.000316112 -0.00099989 0
0.000408029 -0.00172475 0
0.000492301 -0.00262142 0
0.000568367 -0.00367441 0
0.000636306 -0.00486914 0
0.00069552 -0.00618807 0
0.00074585 -0.007613 0
0.00078766 -0.00912745 0
0.000821306 -0.0107163 0
0.000847368 -0.0123638 0
0.000867199 -0.0140576 0
0.000882427 -0.0157909 0
0.000893883 -0.0175568 0
0.000902543 -0.0193501 0
0.000909137 -0.0211682 0
0.000913783 -0.0230085 0
0.000915951 -0.0248677 0
0.000914756 -0.026738 0
      </DataArray> 
    </PointData>
    <CellData>
    </CellData>
  </Piece>
  </UnstructuredGrid>
</VTKFile>
