<?xml version="1.0"?>
<VTKFile type="UnstructuredGrid">
  <UnstructuredGrid>
  <Piece NumberOfPoints="42"  NumberOfCells="81">
    <Points>
      <DataArray type="Float64" NumberOfComponents="3" format="ascii">
0 0 0
0.299855 -0.000169383 0
0.599716 -0.000627784 0
0.899584 -0.00135977 0
1.19946 -0.0023549 0
1.49934 -0.00360027 0
1.79923 -0.005079 0
2.09913 -0.00677317 0
2.39903 -0.00866409 0
2.69895 -0.0107304 0
2.99887 -0.0129502 0
3.2988 -0.0153051 0
3.59874 -0.0177787 0
3.89869 -0.0203536 0
4.19864 -0.0230113 0
4.4986 -0.0257351 0
4.79857 -0.0285115 0
5.09854 -0.0313289 0
5.39852 -0.0341739 0
5.6985 -0.0370358 0
5.99849 -0.0399022 0
0 0.3 0
0.300152 0.299835 0
0.600296 0.299376 0
0.900433 0.298643 0
1.20056 0.297648 0
1.50068 0.296402 0
1.80079 0.294922 0
2.1009 0.293228 0
2.40099 0.291336 0
2.70107 0.289268 0
3.00114 0.287047 0
3.3012 0.284691 0
3.60125 0.282216 0
3.90129 0.27964 0
4.20132 0.276981 0
4.50134 0.274257 0
4.80135 0.271479 0
5.10136 0.268661 0
5.40136 0.265816 0
5.70136 0.262953 0
6.00135 0.260084 0
      </DataArray>
    </Points>
    <Cells>
      <DataArray type="Int32" Name="connectivity" format="ascii">
0 1
1 2
2 3
3 4
4 5
5 6
6 7
7 8
8 9
9 10
10 11
11 12
12 13
13 14
14 15
15 16
16 17
17 18
18 19
19 20
21 22
22 23
23 24
24 25
25 26
26 27
27 28
28 29
29 30
30 31
31 32
32 33
33 34
34 35
35 36
36 37
37 38
38 39
39 40
40 41
0 21
0 22
1 22
1 23
2 23
2 24
3 24
3 25
4 25
4 26
5 26
5 27
6 27
6 28
7 28
7 29
8 29
8 30
9 30
9 31
10 31
10 32
11 32
11 33
12 33
12 34
13 34
13 35
14 35
14 36
15 36
15 37
16 37
16 38
17 38
17 39
18 39
18 40
19 40
19 41
20 41
      </DataArray>
      <DataArray type="Int32" Name="offsets" format="ascii">
2
4
6
8
10
12
14
16
18
20
22
24
26
28
30
32
34
36
38
40
42
44
46
48
50
52
54
56
58
60
62
64
66
68
70
72
74
76
78
80
82
84
86
88
90
92
94
96
98
100
102
104
106
108
110
112
114
116
118
120
122
124
126
128
130
132
134
136
138
140
142
144
146
148
150
152
154
156
158
160
162
      </DataArray>
      <DataArray type="UInt8" Name="types" format="ascii">
4
4
4
4
4
4
4
4
4
4
4
4
4
4
4
4
4
4
4
4
4
4
4
4
4
4
4
4
4
4
4
4
4
4
4
4
4
4
4
4
4
4
4
4
4
4
4
4
4
4
4
4
4
4
4
4
4
4
4
4
4
4
4
4
4
4
4
4
4
4
4
4
4
4
4
4
4
4
4
4
4
      </DataArray>
    </Cells>
    <PointData>
      <DataArray type="Float64" NumberOfComponents="3" Name="Displacement" format="ascii">
0 0 0
-0.000145359 -0.000169383 0
-0.000283514 -0.000627784 0
-0.00041562 -0.00135977 0
-0.000541389 -0.0023549 0
-0.00066002 -0.00360027 0
-0.000770937 -0.005079 0
-0.000873716 -0.00677317 0
-0.000967647 -0.00866409 0
-0.00105254 -0.0107304 0
-0.00112913 -0.0129502 0
-0.00119792 -0.0153051 0
-0.0012589 -0.0177787 0
-0.00131196 -0.0203536 0
-0.0013575 -0.0230113 0
-0.00139659 -0.0257351 0
-0.00142985 -0.0285115 0
-0.00145738 -0.0313289 0
-0.00147973 -0.0341739 0
-0.00149741 -0.0370358 0
-0.00151096 -0.0399022 0
0 0 0
0.000151914 -0.000165035 0
0.000296139 -0.000624195 0
0.000432599 -0.00135699 0
0.000561877 -0.00235248 0
0.000683072 -0.00359825 0
0.000794977 -0.00507759 0
0.000896801 -0.00677245 0
0.00098809 -0.00866422 0
0.00106829 -0.0107318 0
0.00113739 -0.0129531 0
0.00119623 -0.0153093 0
0.00124549 -0.0177839 0
0.00128532 -0.0203598 0
0.00131588 -0.0230186 0
0.00133788 -0.0257435 0
0.00135245 -0.0285206 0
0.00136022 -0.0313386 0
0.00136155 -0.0341842 0
0.00135737 -0.0370465 0
0.0013481 -0.0399157 0
      </DataArray> 
    </PointData>
    <CellData>
    </CellData>
  </Piece>
  </UnstructuredGrid>
</VTKFile>
