<?xml version="1.0"?>
<VTKFile type="UnstructuredGrid">
  <UnstructuredGrid>
  <Piece NumberOfPoints="42"  NumberOfCells="81">
    <Points>
      <DataArray type="Float64" NumberOfComponents="3" format="ascii">
0 0 0
0.300004 1.28867e-05 0
0.600006 3.56261e-05 0
0.900005 6.14645e-05 0
1.2 8.32841e-05 0
1.5 9.85852e-05 0
1.79999 0.000106311 0
2.09998 0.000104205 0
2.39997 8.66623e-05 0
2.69996 4.6363e-05 0
2.99995 -2.15733e-05 0
3.29993 -0.000120621 0
3.59991 -0.000254377 0
3.89989 -0.000425581 0
4.19987 -0.000634792 0
4.49986 -0.000881091 0
4.79984 -0.0011617 0
5.09983 -0.00147345 0
5.39982 -0.00181055 0
5.69982 -0.00216612 0
5.99982 -0.00252756 0
0 0.3 0
0.299993 0.300011 0
0.599988 0.300034 0
0.899987 0.30006 0
1.19999 0.300082 0
1.49999 0.300098 0
1.79999 0.300105 0
2.1 0.300103 0
2.40001 0.300085 0
2.70002 0.300045 0
3.00003 0.299977 0
3.30005 0.299879 0
3.60006 0.299745 0
3.90008 0.299574 0
4.2001 0.299366 0
4.50012 0.29912 0
4.80013 0.298839 0
5.10015 0.298528 0
5.40016 0.298191 0
5.70017 0.297836 0
6.00017 0.297473 0
      </DataArray>
    </Points>
    <Cells>
      <DataArray type="Int32" Name="connectivity" format="ascii">
0 1
1 2
2 3
3 4
4 5
5 6
6 7
7 8
8 9
9 10
10 11
11 12
12 13
13 14
14 15
15 16
16 17
17 18
18 19
19 20
21 22
22 23
23 24
24 25
25 26
26 27
27 28
28 29
29 30
30 31
31 32
32 33
33 34
34 35
35 36
36 37
37 38
38 39
39 40
40 41
0 21
0 22
1 22
1 23
2 23
2 24
3 24
3 25
4 25
4 26
5 26
5 27
6 27
6 28
7 28
7 29
8 29
8 30
9 30
9 31
10 31
10 32
11 32
11 33
12 33
12 34
13 34
13 35
14 35
14 36
15 36
15 37
16 37
16 38
17 38
17 39
18 39
18 40
19 40
19 41
20 41
      </DataArray>
      <DataArray type="Int32" Name="offsets" format="ascii">
2
4
6
8
10
12
14
16
18
20
22
24
26
28
30
32
34
36
38
40
42
44
46
48
50
52
54
56
58
60
62
64
66
68
70
72
74
76
78
80
82
84
86
88
90
92
94
96
98
100
102
104
106
108
110
112
114
116
118
120
122
124
126
128
130
132
134
136
138
140
142
144
146
148
150
152
154
156
158
160
162
      </DataArray>
      <DataArray type="UInt8" Name="types" format="ascii">
4
4
4
4
4
4
4
4
4
4
4
4
4
4
4
4
4
4
4
4
4
4
4
4
4
4
4
4
4
4
4
4
4
4
4
4
4
4
4
4
4
4
4
4
4
4
4
4
4
4
4
4
4
4
4
4
4
4
4
4
4
4
4
4
4
4
4
4
4
4
4
4
4
4
4
4
4
4
4
4
4
      </DataArray>
    </Cells>
    <PointData>
      <DataArray type="Float64" NumberOfComponents="3" Name="Displacement" format="ascii">
0 0 0
4.42818e-06 1.28867e-05 0
6.24654e-06 3.56261e-05 0
5.33635e-06 6.14645e-05 0
2.67238e-06 8.32841e-05 0
-1.35608e-06 9.85852e-05 0
-7.08249e-06 0.000106311 0
-1.51612e-05 0.000104205 0
-2.61221e-05 8.66623e-05 0
-3.9443e-05 4.6363e-05 0
-5.47063e-05 -2.15733e-05 0
-7.16158e-05 -0.000120621 0
-8.96338e-05 -0.000254377 0
-0.000107878 -0.000425581 0
-0.000125638 -0.000634792 0
-0.000142289 -0.000881091 0
-0.00015723 -0.0011617 0
-0.000169449 -0.00147345 0
-0.000178144 -0.00181055 0
-0.000182593 -0.00216612 0
-0.000182969 -0.00252756 0
0 0 0
-7.11578e-06 1.13123e-05 0
-1.17567e-05 3.39193e-05 0
-1.35e-05 6.00433e-05 0
-1.22617e-05 8.23093e-05 0
-9.31886e-06 9.7673e-05 0
-5.21457e-06 0.000105158 0
4.0387e-07 0.000102745 0
8.32133e-06 8.52122e-05 0
1.91549e-05 4.52016e-05 0
3.24132e-05 -2.25193e-05 0
4.75724e-05 -0.000121378 0
6.42439e-05 -0.000254817 0
8.20015e-05 -0.00042562 0
0.000100105 -0.000634412 0
0.000117681 -0.000880327 0
0.000133845 -0.00116052 0
0.00014806 -0.00147182 0
0.000159646 -0.00180853 0
0.0001678 -0.00216396 0
0.000171707 -0.00252742 0
      </DataArray> 
    </PointData>
    <CellData>
    </CellData>
  </Piece>
  </UnstructuredGrid>
</VTKFile>
