<?xml version="1.0"?>
<VTKFile type="UnstructuredGrid">
  <UnstructuredGrid>
  <Piece NumberOfPoints="42"  NumberOfCells="81">
    <Points>
      <DataArray type="Float64" NumberOfComponents="3" format="ascii">
0 0 0
0.299874 -0.000146037 0
0.599755 -0.00054308 0
0.89964 -0.00117789 0
1.19953 -0.00204069 0
1.49943 -0.00312264 0
1.79933 -0.00441147 0
2.09924 -0.00589208 0
2.39916 -0.00754734 0
2.69908 -0.00935818 0
2.99902 -0.0113051 0
3.29896 -0.0133694 0
3.59891 -0.0155349 0
3.89886 -0.017788 0
4.19882 -0.0201141 0
4.49879 -0.0224982 0
4.79876 -0.024931 0
5.09873 -0.0274038 0
5.39871 -0.0299062 0
5.6987 -0.0324273 0
5.99869 -0.0349549 0
0 0.3 0
0.300132 0.299858 0
0.600257 0.29946 0
0.900376 0.298824 0
1.20049 0.297961 0
1.5006 0.296879 0
1.8007 0.29559 0
2.10079 0.294109 0
2.40087 0.292453 0
2.70094 0.290642 0
3.001 0.288694 0
3.30106 0.286628 0
3.6011 0.284462 0
3.90114 0.282208 0
4.20116 0.279881 0
4.50118 0.277496 0
4.8012 0.275062 0
5.10121 0.272589 0
5.40121 0.270087 0
5.70121 0.267565 0
6.00121 0.265035 0
      </DataArray>
    </Points>
    <Cells>
      <DataArray type="Int32" Name="connectivity" format="ascii">
0 1
1 2
2 3
3 4
4 5
5 6
6 7
7 8
8 9
9 10
10 11
11 12
12 13
13 14
14 15
15 16
16 17
17 18
18 19
19 20
21 22
22 23
23 24
24 25
25 26
26 27
27 28
28 29
29 30
30 31
31 32
32 33
33 34
34 35
35 36
36 37
37 38
38 39
39 40
40 41
0 21
0 22
1 22
1 23
2 23
2 24
3 24
3 25
4 25
4 26
5 26
5 27
6 27
6 28
7 28
7 29
8 29
8 30
9 30
9 31
10 31
10 32
11 32
11 33
12 33
12 34
13 34
13 35
14 35
14 36
15 36
15 37
16 37
16 38
17 38
17 39
18 39
18 40
19 40
19 41
20 41
      </DataArray>
      <DataArray type="Int32" Name="offsets" format="ascii">
2
4
6
8
10
12
14
16
18
20
22
24
26
28
30
32
34
36
38
40
42
44
46
48
50
52
54
56
58
60
62
64
66
68
70
72
74
76
78
80
82
84
86
88
90
92
94
96
98
100
102
104
106
108
110
112
114
116
118
120
122
124
126
128
130
132
134
136
138
140
142
144
146
148
150
152
154
156
158
160
162
      </DataArray>
      <DataArray type="UInt8" Name="types" format="ascii">
4
4
4
4
4
4
4
4
4
4
4
4
4
4
4
4
4
4
4
4
4
4
4
4
4
4
4
4
4
4
4
4
4
4
4
4
4
4
4
4
4
4
4
4
4
4
4
4
4
4
4
4
4
4
4
4
4
4
4
4
4
4
4
4
4
4
4
4
4
4
4
4
4
4
4
4
4
4
4
4
4
      </DataArray>
    </Cells>
    <PointData>
      <DataArray type="Float64" NumberOfComponents="3" Name="Displacement" format="ascii">
0 0 0
-0.000125686 -0.000146037 0
-0.000245374 -0.00054308 0
-0.000359786 -0.00117789 0
-0.000469257 -0.00204069 0
-0.000573145 -0.00312264 0
-0.000670526 -0.00441147 0
-0.000760536 -0.00589208 0
-0.000842517 -0.00754734 0
-0.000916234 -0.00935818 0
-0.000981958 -0.0113051 0
-0.00104043 -0.0133694 0
-0.00109232 -0.0155349 0
-0.00113779 -0.017788 0
-0.00117721 -0.0201141 0
-0.00121178 -0.0224982 0
-0.001242 -0.024931 0
-0.00126735 -0.0274038 0
-0.00128767 -0.0299062 0
-0.00130322 -0.0324273 0
-0.00131384 -0.0349549 0
0 0 0
0.000131837 -0.000142487 0
0.00025728 -0.000540029 0
0.000376176 -0.00117552 0
0.000489077 -0.00203866 0
0.000595971 -0.00312074 0
0.000695746 -0.0044098 0
0.000787195 -0.00589079 0
0.000869426 -0.00754664 0
0.000941805 -0.00935838 0
0.00100414 -0.0113065 0
0.00105674 -0.013372 0
0.0011004 -0.0155385 0
0.00113601 -0.0177924 0
0.00116392 -0.0201194 0
0.00118455 -0.0225044 0
0.00119916 -0.0249377 0
0.00120856 -0.0274108 0
0.00121259 -0.0299135 0
0.00121137 -0.0324348 0
0.00120541 -0.0349648 0
      </DataArray> 
    </PointData>
    <CellData>
    </CellData>
  </Piece>
  </UnstructuredGrid>
</VTKFile>
