<?xml version="1.0"?>
<VTKFile type="UnstructuredGrid">
  <UnstructuredGrid>
  <Piece NumberOfPoints="42"  NumberOfCells="81">
    <Points>
      <DataArray type="Float64" NumberOfComponents="3" format="ascii">
0 0 0
0.300008 1.5272e-05 0
0.600013 4.7117e-05 0
0.900015 8.9755e-05 0
1.20002 0.000137716 0
1.50001 0.000187182 0
1.80001 0.000235219 0
2.1 0.000275716 0
2.39999 0.000299073 0
2.69998 0.000298853 0
2.99996 0.00027099 0
3.29995 0.000212436 0
3.59993 0.000120101 0
3.89991 -8.16544e-06 0
4.1999 -0.000170036 0
4.49988 -0.000363658 0
4.79987 -0.000587853 0
5.09986 -0.00084078 0
5.39985 -0.00111914 0
5.69984 -0.00141733 0
5.99984 -0.00172308 0
0 0.3 0
0.29999 0.300014 0
0.599981 0.300046 0
0.899976 0.300088 0
1.19997 0.300136 0
1.49997 0.300186 0
1.79997 0.300233 0
2.09998 0.300274 0
2.39999 0.300297 0
2.7 0.300298 0
3.00001 0.30027 0
3.30002 0.300212 0
3.60004 0.30012 0
3.90006 0.299992 0
4.20007 0.29983 0
4.50009 0.299637 0
4.8001 0.299413 0
5.10012 0.299161 0
5.40013 0.298883 0
5.70014 0.298585 0
6.00014 0.298277 0
      </DataArray>
    </Points>
    <Cells>
      <DataArray type="Int32" Name="connectivity" format="ascii">
0 1
1 2
2 3
3 4
4 5
5 6
6 7
7 8
8 9
9 10
10 11
11 12
12 13
13 14
14 15
15 16
16 17
17 18
18 19
19 20
21 22
22 23
23 24
24 25
25 26
26 27
27 28
28 29
29 30
30 31
31 32
32 33
33 34
34 35
35 36
36 37
37 38
38 39
39 40
40 41
0 21
0 22
1 22
1 23
2 23
2 24
3 24
3 25
4 25
4 26
5 26
5 27
6 27
6 28
7 28
7 29
8 29
8 30
9 30
9 31
10 31
10 32
11 32
11 33
12 33
12 34
13 34
13 35
14 35
14 36
15 36
15 37
16 37
16 38
17 38
17 39
18 39
18 40
19 40
19 41
20 41
      </DataArray>
      <DataArray type="Int32" Name="offsets" format="ascii">
2
4
6
8
10
12
14
16
18
20
22
24
26
28
30
32
34
36
38
40
42
44
46
48
50
52
54
56
58
60
62
64
66
68
70
72
74
76
78
80
82
84
86
88
90
92
94
96
98
100
102
104
106
108
110
112
114
116
118
120
122
124
126
128
130
132
134
136
138
140
142
144
146
148
150
152
154
156
158
160
162
      </DataArray>
      <DataArray type="UInt8" Name="types" format="ascii">
4
4
4
4
4
4
4
4
4
4
4
4
4
4
4
4
4
4
4
4
4
4
4
4
4
4
4
4
4
4
4
4
4
4
4
4
4
4
4
4
4
4
4
4
4
4
4
4
4
4
4
4
4
4
4
4
4
4
4
4
4
4
4
4
4
4
4
4
4
4
4
4
4
4
4
4
4
4
4
4
4
      </DataArray>
    </Cells>
    <PointData>
      <DataArray type="Float64" NumberOfComponents="3" Name="Displacement" format="ascii">
0 0 0
7.71696e-06 1.5272e-05 0
1.28757e-05 4.7117e-05 0
1.54702e-05 8.9755e-05 0
1.59206e-05 0.000137716 0
1.42938e-05 0.000187182 0
9.98321e-06 0.000235219 0
2.14702e-06 0.000275716 0
-8.76695e-06 0.000299073 0
-2.19239e-05 0.000298853 0
-3.68261e-05 0.00027099 0
-5.302e-05 0.000212436 0
-6.99871e-05 0.000120101 0
-8.6587e-05 -8.16544e-06 0
-0.000102507 -0.000170036 0
-0.000117535 -0.000363658 0
-0.000131216 -0.000587853 0
-0.000142991 -0.00084078 0
-0.00015209 -0.00111914 0
-0.000157264 -0.00141733 0
-0.000157677 -0.00172308 0
0 0 0
-1.0302e-05 1.38996e-05 0
-1.85164e-05 4.56562e-05 0
-2.42008e-05 8.83791e-05 0
-2.73283e-05 0.000136374 0
-2.81745e-05 0.000185608 0
-2.67074e-05 0.000233225 0
-2.23548e-05 0.000273668 0
-1.44321e-05 0.000297474 0
-3.50304e-06 0.000297701 0
9.56194e-06 0.000270143 0
2.43205e-05 0.000211895 0
4.03305e-05 0.00012007 0
5.70836e-05 -7.79e-06 0
7.33542e-05 -0.000169573 0
8.88109e-05 -0.000363072 0
0.000103403 -0.000586971 0
0.000116808 -0.000839455 0
0.000128242 -0.0011172 0
0.000136722 -0.00141494 0
0.000140987 -0.00172335 0
      </DataArray> 
    </PointData>
    <CellData>
    </CellData>
  </Piece>
  </UnstructuredGrid>
</VTKFile>
