<?xml version="1.0"?>
<VTKFile type="UnstructuredGrid">
  <UnstructuredGrid>
  <Piece NumberOfPoints="42"  NumberOfCells="81">
    <Points>
      <DataArray type="Float64" NumberOfComponents="3" format="ascii">
0 0 0
0.299904 -0.000108138 0
0.599813 -0.000406078 0
0.899725 -0.000885191 0
1.19964 -0.00153847 0
1.49956 -0.00236121 0
1.79948 -0.00334481 0
2.09941 -0.00447831 0
2.39934 -0.00574897 0
2.69928 -0.00714496 0
2.99922 -0.00865722 0
3.29917 -0.0102788 0
3.59912 -0.0120017 0
3.89907 -0.0138166 0
4.19903 -0.0157132 0
4.499 -0.0176803 0
4.79897 -0.0197047 0
5.09895 -0.02177 0
5.39893 -0.0238621 0
5.69892 -0.0259713 0
5.99891 -0.028087 0
0 0.3 0
0.300098 0.299894 0
0.600193 0.299596 0
0.900283 0.299117 0
1.20037 0.298463 0
1.50045 0.29764 0
1.80053 0.296657 0
2.1006 0.295523 0
2.40067 0.294251 0
2.70073 0.292854 0
3.00078 0.291341 0
3.30083 0.289719 0
3.60088 0.287996 0
3.90092 0.286181 0
4.20095 0.284284 0
4.50098 0.282317 0
4.801 0.280293 0
5.10101 0.278226 0
5.40102 0.276134 0
5.70102 0.274024 0
6.00102 0.271906 0
      </DataArray>
    </Points>
    <Cells>
      <DataArray type="Int32" Name="connectivity" format="ascii">
0 1
1 2
2 3
3 4
4 5
5 6
6 7
7 8
8 9
9 10
10 11
11 12
12 13
13 14
14 15
15 16
16 17
17 18
18 19
19 20
21 22
22 23
23 24
24 25
25 26
26 27
27 28
28 29
29 30
30 31
31 32
32 33
33 34
34 35
35 36
36 37
37 38
38 39
39 40
40 41
0 21
0 22
1 22
1 23
2 23
2 24
3 24
3 25
4 25
4 26
5 26
5 27
6 27
6 28
7 28
7 29
8 29
8 30
9 30
9 31
10 31
10 32
11 32
11 33
12 33
12 34
13 34
13 35
14 35
14 36
15 36
15 37
16 37
16 38
17 38
17 39
18 39
18 40
19 40
19 41
20 41
      </DataArray>
      <DataArray type="Int32" Name="offsets" format="ascii">
2
4
6
8
10
12
14
16
18
20
22
24
26
28
30
32
34
36
38
40
42
44
46
48
50
52
54
56
58
60
62
64
66
68
70
72
74
76
78
80
82
84
86
88
90
92
94
96
98
100
102
104
106
108
110
112
114
116
118
120
122
124
126
128
130
132
134
136
138
140
142
144
146
148
150
152
154
156
158
160
162
      </DataArray>
      <DataArray type="UInt8" Name="types" format="ascii">
4
4
4
4
4
4
4
4
4
4
4
4
4
4
4
4
4
4
4
4
4
4
4
4
4
4
4
4
4
4
4
4
4
4
4
4
4
4
4
4
4
4
4
4
4
4
4
4
4
4
4
4
4
4
4
4
4
4
4
4
4
4
4
4
4
4
4
4
4
4
4
4
4
4
4
4
4
4
4
4
4
      </DataArray>
    </Cells>
    <PointData>
      <DataArray type="Float64" NumberOfComponents="3" Name="Displacement" format="ascii">
0 0 0
-9.56896e-05 -0.000108138 0
-0.000187352 -0.000406078 0
-0.000275481 -0.000885191 0
-0.000360496 -0.00153847 0
-0.000441647 -0.00236121 0
-0.000518075 -0.00334481 0
-0.000589234 -0.00447831 0
-0.00065542 -0.00574897 0
-0.000717385 -0.00714496 0
-0.000775844 -0.00865722 0
-0.000830553 -0.0102788 0
-0.000881022 -0.0120017 0
-0.000926793 -0.0138166 0
-0.000967132 -0.0157132 0
-0.00100149 -0.0176803 0
-0.0010292 -0.0197047 0
-0.00105083 -0.02177 0
-0.00106744 -0.0238621 0
-0.00107957 -0.0259713 0
-0.00108719 -0.028087 0
0 0 0
9.84644e-05 -0.000105699 0
0.000192679 -0.000403904 0
0.000282613 -0.000883459 0
0.000368594 -0.00153691 0
0.000450762 -0.00235958 0
0.000528182 -0.00334326 0
0.000600118 -0.00447716 0
0.000666184 -0.00574865 0
0.0007265 -0.00714569 0
0.0007815 -0.00865875 0
0.000831703 -0.0102807 0
0.000876858 -0.012004 0
0.000916629 -0.013819 0
0.000950785 -0.0157157 0
0.000978819 -0.0176829 0
0.00100027 -0.0197075 0
0.0010144 -0.0217735 0
0.00102174 -0.0238663 0
0.0010235 -0.0259759 0
0.0010206 -0.0280943 0
      </DataArray> 
    </PointData>
    <CellData>
    </CellData>
  </Piece>
  </UnstructuredGrid>
</VTKFile>
