<?xml version="1.0"?>
<VTKFile type="UnstructuredGrid">
  <UnstructuredGrid>
  <Piece NumberOfPoints="42"  NumberOfCells="81">
    <Points>
      <DataArray type="Float64" NumberOfComponents="3" format="ascii">
0 0 0
0.300002 1.17164e-05 0
0.600001 2.60616e-05 0
0.9 3.97253e-05 0
1.2 5.14958e-05 0
1.49999 5.80257e-05 0
1.79998 5.41355e-05 0
2.09997 3.71207e-05 0
2.39996 2.20938e-06 0
2.69995 -5.63211e-05 0
2.99994 -0.000141228 0
3.29992 -0.000254446 0
3.59991 -0.000397412 0
3.89989 -0.000569277 0
4.19988 -0.000768114 0
4.49987 -0.000991419 0
4.79986 -0.00123424 0
5.09985 -0.00149328 0
5.39985 -0.00176783 0
5.69984 -0.00205643 0
5.99984 -0.00235179 0
0 0.3 0
0.299995 0.30001 0
0.599992 0.300025 0
0.899991 0.300039 0
1.19999 0.30005 0
1.49999 0.300057 0
1.8 0.300053 0
2.10001 0.300036 0
2.40001 0.300001 0
2.70002 0.299943 0
3.00004 0.299858 0
3.30005 0.299745 0
3.60006 0.299603 0
3.90008 0.299431 0
4.20009 0.299233 0
4.5001 0.29901 0
4.80011 0.298767 0
5.10012 0.298507 0
5.40013 0.298233 0
5.70013 0.297945 0
6.00013 0.297649 0
      </DataArray>
    </Points>
    <Cells>
      <DataArray type="Int32" Name="connectivity" format="ascii">
0 1
1 2
2 3
3 4
4 5
5 6
6 7
7 8
8 9
9 10
10 11
11 12
12 13
13 14
14 15
15 16
16 17
17 18
18 19
19 20
21 22
22 23
23 24
24 25
25 26
26 27
27 28
28 29
29 30
30 31
31 32
32 33
33 34
34 35
35 36
36 37
37 38
38 39
39 40
40 41
0 21
0 22
1 22
1 23
2 23
2 24
3 24
3 25
4 25
4 26
5 26
5 27
6 27
6 28
7 28
7 29
8 29
8 30
9 30
9 31
10 31
10 32
11 32
11 33
12 33
12 34
13 34
13 35
14 35
14 36
15 36
15 37
16 37
16 38
17 38
17 39
18 39
18 40
19 40
19 41
20 41
      </DataArray>
      <DataArray type="Int32" Name="offsets" format="ascii">
2
4
6
8
10
12
14
16
18
20
22
24
26
28
30
32
34
36
38
40
42
44
46
48
50
52
54
56
58
60
62
64
66
68
70
72
74
76
78
80
82
84
86
88
90
92
94
96
98
100
102
104
106
108
110
112
114
116
118
120
122
124
126
128
130
132
134
136
138
140
142
144
146
148
150
152
154
156
158
160
162
      </DataArray>
      <DataArray type="UInt8" Name="types" format="ascii">
4
4
4
4
4
4
4
4
4
4
4
4
4
4
4
4
4
4
4
4
4
4
4
4
4
4
4
4
4
4
4
4
4
4
4
4
4
4
4
4
4
4
4
4
4
4
4
4
4
4
4
4
4
4
4
4
4
4
4
4
4
4
4
4
4
4
4
4
4
4
4
4
4
4
4
4
4
4
4
4
4
      </DataArray>
    </Cells>
    <PointData>
      <DataArray type="Float64" NumberOfComponents="3" Name="Displacement" format="ascii">
0 0 0
1.71615e-06 1.17164e-05 0
1.39846e-06 2.60616e-05 0
-4.09865e-07 3.97253e-05 0
-3.88857e-06 5.14958e-05 0
-9.38782e-06 5.80257e-05 0
-1.64919e-05 5.41355e-05 0
-2.55957e-05 3.71207e-05 0
-3.68933e-05 2.20938e-06 0
-4.98164e-05 -5.63211e-05 0
-6.37797e-05 -0.000141228 0
-7.82769e-05 -0.000254446 0
-9.2586e-05 -0.000397412 0
-0.000105963 -0.000569277 0
-0.000118061 -0.000768114 0
-0.00012837 -0.000991419 0
-0.000137183 -0.00123424 0
-0.000145001 -0.00149328 0
-0.000151268 -0.00176783 0
-0.000155024 -0.00205643 0
-0.000155124 -0.00235179 0
0 0 0
-5.453e-06 1.02323e-05 0
-8.07076e-06 2.50007e-05 0
-8.67262e-06 3.87365e-05 0
-7.84034e-06 5.02499e-05 0
-5.38542e-06 5.67186e-05 0
-8.48999e-07 5.28678e-05 0
5.50878e-06 3.58102e-05 0
1.40668e-05 1.13302e-06 0
2.47864e-05 -5.70087e-05 0
3.70028e-05 -0.000141614 0
5.0189e-05 -0.000254522 0
6.38451e-05 -0.000397133 0
7.72695e-05 -0.00056873 0
8.97835e-05 -0.000767291 0
0.000101111 -0.000990445 0
0.0001107 -0.00123345 0
0.000118643 -0.00149251 0
0.000125473 -0.00176669 0
0.000130831 -0.00205467 0
0.000134038 -0.00235133 0
      </DataArray> 
    </PointData>
    <CellData>
    </CellData>
  </Piece>
  </UnstructuredGrid>
</VTKFile>
