<?xml version="1.0"?>
<VTKFile type="UnstructuredGrid">
  <UnstructuredGrid>
  <Piece NumberOfPoints="42"  NumberOfCells="81">
    <Points>
      <DataArray type="Float64" NumberOfComponents="3" format="ascii">
0 0 0
0.299869 -0.00014473 0
0.599742 -0.000552459 0
0.89962 -0.00121503 0
1.1995 -0.00212357 0
1.49939 -0.00326652 0
1.79929 -0.00462745 0
2.0992 -0.0061875 0
2.39911 -0.00792966 0
2.69903 -0.00983938 0
2.99895 -0.011899 0
3.29889 -0.01409 0
3.59883 -0.0163963 0
3.89878 -0.0188016 0
4.19873 -0.0212901 0
4.4987 -0.0238452 0
4.79866 -0.0264527 0
5.09864 -0.0291015 0
5.39862 -0.0317797 0
5.6986 -0.0344744 0
5.99859 -0.0371735 0
0 0.3 0
0.300135 0.299858 0
0.600266 0.29945 0
0.900392 0.298787 0
1.20051 0.297879 0
1.50063 0.296736 0
1.80073 0.295374 0
2.10083 0.293813 0
2.40091 0.29207 0
2.70099 0.290159 0
3.00106 0.288099 0
3.30112 0.285907 0
3.60117 0.2836 0
3.90121 0.281193 0
4.20124 0.278704 0
4.50126 0.276148 0
4.80128 0.27354 0
5.10129 0.27089 0
5.40129 0.268212 0
5.70129 0.265516 0
6.00128 0.262815 0
      </DataArray>
    </Points>
    <Cells>
      <DataArray type="Int32" Name="connectivity" format="ascii">
0 1
1 2
2 3
3 4
4 5
5 6
6 7
7 8
8 9
9 10
10 11
11 12
12 13
13 14
14 15
15 16
16 17
17 18
18 19
19 20
21 22
22 23
23 24
24 25
25 26
26 27
27 28
28 29
29 30
30 31
31 32
32 33
33 34
34 35
35 36
36 37
37 38
38 39
39 40
40 41
0 21
0 22
1 22
1 23
2 23
2 24
3 24
3 25
4 25
4 26
5 26
5 27
6 27
6 28
7 28
7 29
8 29
8 30
9 30
9 31
10 31
10 32
11 32
11 33
12 33
12 34
13 34
13 35
14 35
14 36
15 36
15 37
16 37
16 38
17 38
17 39
18 39
18 40
19 40
19 41
20 41
      </DataArray>
      <DataArray type="Int32" Name="offsets" format="ascii">
2
4
6
8
10
12
14
16
18
20
22
24
26
28
30
32
34
36
38
40
42
44
46
48
50
52
54
56
58
60
62
64
66
68
70
72
74
76
78
80
82
84
86
88
90
92
94
96
98
100
102
104
106
108
110
112
114
116
118
120
122
124
126
128
130
132
134
136
138
140
142
144
146
148
150
152
154
156
158
160
162
      </DataArray>
      <DataArray type="UInt8" Name="types" format="ascii">
4
4
4
4
4
4
4
4
4
4
4
4
4
4
4
4
4
4
4
4
4
4
4
4
4
4
4
4
4
4
4
4
4
4
4
4
4
4
4
4
4
4
4
4
4
4
4
4
4
4
4
4
4
4
4
4
4
4
4
4
4
4
4
4
4
4
4
4
4
4
4
4
4
4
4
4
4
4
4
4
4
      </DataArray>
    </Cells>
    <PointData>
      <DataArray type="Float64" NumberOfComponents="3" Name="Displacement" format="ascii">
0 0 0
-0.000131083 -0.00014473 0
-0.000257971 -0.000552459 0
-0.000380304 -0.00121503 0
-0.000497099 -0.00212357 0
-0.000607076 -0.00326652 0
-0.000709503 -0.00462745 0
-0.000804631 -0.0061875 0
-0.000892802 -0.00792966 0
-0.00097348 -0.00983938 0
-0.00104647 -0.011899 0
-0.00111207 -0.01409 0
-0.00117038 -0.0163963 0
-0.00122162 -0.0188016 0
-0.00126603 -0.0212901 0
-0.00130424 -0.0238452 0
-0.00133675 -0.0264527 0
-0.00136368 -0.0291015 0
-0.00138492 -0.0317797 0
-0.00140135 -0.0344744 0
-0.00141358 -0.0371735 0
0 0 0
0.000135176 -0.000142311 0
0.000266145 -0.000550127 0
0.000392303 -0.00121278 0
0.000512882 -0.00212128 0
0.000626638 -0.00326435 0
0.000731985 -0.00462592 0
0.000827802 -0.00618704 0
0.000914165 -0.00793012 0
0.000991504 -0.00984059 0
0.00105938 -0.0119013 0
0.00111764 -0.0140933 0
0.00116675 -0.0164005 0
0.00120702 -0.0188066 0
0.00123865 -0.0212959 0
0.00126178 -0.023852 0
0.00127735 -0.0264603 0
0.00128636 -0.0291096 0
0.00128935 -0.0317883 0
0.00128634 -0.0344837 0
0.00127837 -0.037185 0
      </DataArray> 
    </PointData>
    <CellData>
    </CellData>
  </Piece>
  </UnstructuredGrid>
</VTKFile>
