<?xml version="1.0"?>
<VTKFile type="UnstructuredGrid">
  <UnstructuredGrid>
  <Piece NumberOfPoints="42"  NumberOfCells="81">
    <Points>
      <DataArray type="Float64" NumberOfComponents="3" format="ascii">
0 0 0
0.299972 -3.18694e-05 0
0.599945 -0.00012097 0
0.89992 -0.000263098 0
1.1999 -0.000455064 0
1.49987 -0.000694272 0
1.79985 -0.000975949 0
2.09983 -0.00129731 0
2.39981 -0.00165708 0
2.69979 -0.00205673 0
2.99977 -0.00249891 0
3.29974 -0.00298769 0
3.59972 -0.00352564 0
3.8997 -0.00411132 0
4.19968 -0.00474159 0
4.49966 -0.00541095 0
4.79965 -0.00611414 0
5.09964 -0.00684416 0
5.39963 -0.007597 0
5.69962 -0.00836907 0
5.99962 -0.0091494 0
0 0.3 0
0.300029 0.299969 0
0.600057 0.29988 0
0.900084 0.299738 0
1.20011 0.299546 0
1.50013 0.299306 0
1.80015 0.299024 0
2.10017 0.298703 0
2.40019 0.298342 0
2.70021 0.297942 0
3.00024 0.2975 0
3.30026 0.297012 0
3.60028 0.296474 0
3.9003 0.295889 0
4.20032 0.295259 0
4.50034 0.29459 0
4.80036 0.293887 0
5.10037 0.293157 0
5.40038 0.292404 0
5.70039 0.291632 0
6.00039 0.29085 0
      </DataArray>
    </Points>
    <Cells>
      <DataArray type="Int32" Name="connectivity" format="ascii">
0 1
1 2
2 3
3 4
4 5
5 6
6 7
7 8
8 9
9 10
10 11
11 12
12 13
13 14
14 15
15 16
16 17
17 18
18 19
19 20
21 22
22 23
23 24
24 25
25 26
26 27
27 28
28 29
29 30
30 31
31 32
32 33
33 34
34 35
35 36
36 37
37 38
38 39
39 40
40 41
0 21
0 22
1 22
1 23
2 23
2 24
3 24
3 25
4 25
4 26
5 26
5 27
6 27
6 28
7 28
7 29
8 29
8 30
9 30
9 31
10 31
10 32
11 32
11 33
12 33
12 34
13 34
13 35
14 35
14 36
15 36
15 37
16 37
16 38
17 38
17 39
18 39
18 40
19 40
19 41
20 41
      </DataArray>
      <DataArray type="Int32" Name="offsets" format="ascii">
2
4
6
8
10
12
14
16
18
20
22
24
26
28
30
32
34
36
38
40
42
44
46
48
50
52
54
56
58
60
62
64
66
68
70
72
74
76
78
80
82
84
86
88
90
92
94
96
98
100
102
104
106
108
110
112
114
116
118
120
122
124
126
128
130
132
134
136
138
140
142
144
146
148
150
152
154
156
158
160
162
      </DataArray>
      <DataArray type="UInt8" Name="types" format="ascii">
4
4
4
4
4
4
4
4
4
4
4
4
4
4
4
4
4
4
4
4
4
4
4
4
4
4
4
4
4
4
4
4
4
4
4
4
4
4
4
4
4
4
4
4
4
4
4
4
4
4
4
4
4
4
4
4
4
4
4
4
4
4
4
4
4
4
4
4
4
4
4
4
4
4
4
4
4
4
4
4
4
      </DataArray>
    </Cells>
    <PointData>
      <DataArray type="Float64" NumberOfComponents="3" Name="Displacement" format="ascii">
0 0 0
-2.83306e-05 -3.18694e-05 0
-5.49884e-05 -0.00012097 0
-7.99653e-05 -0.000263098 0
-0.000103505 -0.000455064 0
-0.000125328 -0.000694272 0
-0.000145972 -0.000975949 0
-0.000166164 -0.00129731 0
-0.000186802 -0.00165708 0
-0.000208444 -0.00205673 0
-0.000231426 -0.00249891 0
-0.000255113 -0.00298769 0
-0.000278365 -0.00352564 0
-0.000300191 -0.00411132 0
-0.000319889 -0.00474159 0
-0.0003373 -0.00541095 0
-0.000351892 -0.00611414 0
-0.000364025 -0.00684416 0
-0.000373517 -0.007597 0
-0.000379385 -0.00836907 0
-0.000380523 -0.0091494 0
0 0 0
2.91089e-05 -3.10665e-05 0
5.7099e-05 -0.000120033 0
8.3554e-05 -0.000262239 0
0.000108475 -0.0004542 0
0.000131951 -0.000693511 0
0.000153687 -0.000975573 0
0.000174247 -0.00129743 0
0.00019433 -0.00165767 0
0.000214742 -0.00205766 0
0.000235986 -0.00249986 0
0.000258344 -0.00298825 0
0.000281206 -0.00352569 0
0.000303537 -0.0041109 0
0.000324302 -0.00474085 0
0.000342611 -0.00541 0
0.000358222 -0.00611321 0
0.000370849 -0.00684336 0
0.000381027 -0.00759594 0
0.000388551 -0.00836754 0
0.000392243 -0.00915027 0
      </DataArray> 
    </PointData>
    <CellData>
    </CellData>
  </Piece>
  </UnstructuredGrid>
</VTKFile>
