<?xml version="1.0"?>
<VTKFile type="UnstructuredGrid">
  <UnstructuredGrid>
  <Piece NumberOfPoints="42"  NumberOfCells="81">
    <Points>
      <DataArray type="Float64" NumberOfComponents="3" format="ascii">
0 0 0
0.30001 2.44705e-05 0
0.600016 6.84832e-05 0
0.900017 0.000123518 0
1.20001 0.000180636 0
1.5 0.000228184 0
1.79999 0.000252931 0
2.09997 0.000247335 0
2.39996 0.000209062 0
2.69994 0.000135066 0
2.99992 2.50568e-05 0
3.2999 -0.000120938 0
3.59988 -0.000306239 0
3.89986 -0.000533672 0
4.19984 -0.00080458 0
4.49982 -0.00111722 0
4.79981 -0.00146772 0
5.0998 -0.00185084 0
5.39979 -0.00226116 0
5.69978 -0.00269235 0
5.99978 -0.00313203 0
0 0.3 0
0.299986 0.300022 0
0.599977 0.300066 0
0.899972 0.300121 0
1.19997 0.300178 0
1.49998 0.300226 0
1.79999 0.300251 0
2.1 0.300246 0
2.40002 0.300208 0
2.70003 0.300135 0
3.00005 0.300025 0
3.30007 0.299878 0
3.60009 0.299693 0
3.90011 0.299466 0
4.20013 0.299196 0
4.50015 0.298884 0
4.80017 0.298534 0
5.10018 0.298151 0
5.4002 0.297741 0
5.70021 0.29731 0
6.00021 0.296869 0
      </DataArray>
    </Points>
    <Cells>
      <DataArray type="Int32" Name="connectivity" format="ascii">
0 1
1 2
2 3
3 4
4 5
5 6
6 7
7 8
8 9
9 10
10 11
11 12
12 13
13 14
14 15
15 16
16 17
17 18
18 19
19 20
21 22
22 23
23 24
24 25
25 26
26 27
27 28
28 29
29 30
30 31
31 32
32 33
33 34
34 35
35 36
36 37
37 38
38 39
39 40
40 41
0 21
0 22
1 22
1 23
2 23
2 24
3 24
3 25
4 25
4 26
5 26
5 27
6 27
6 28
7 28
7 29
8 29
8 30
9 30
9 31
10 31
10 32
11 32
11 33
12 33
12 34
13 34
13 35
14 35
14 36
15 36
15 37
16 37
16 38
17 38
17 39
18 39
18 40
19 40
19 41
20 41
      </DataArray>
      <DataArray type="Int32" Name="offsets" format="ascii">
2
4
6
8
10
12
14
16
18
20
22
24
26
28
30
32
34
36
38
40
42
44
46
48
50
52
54
56
58
60
62
64
66
68
70
72
74
76
78
80
82
84
86
88
90
92
94
96
98
100
102
104
106
108
110
112
114
116
118
120
122
124
126
128
130
132
134
136
138
140
142
144
146
148
150
152
154
156
158
160
162
      </DataArray>
      <DataArray type="UInt8" Name="types" format="ascii">
4
4
4
4
4
4
4
4
4
4
4
4
4
4
4
4
4
4
4
4
4
4
4
4
4
4
4
4
4
4
4
4
4
4
4
4
4
4
4
4
4
4
4
4
4
4
4
4
4
4
4
4
4
4
4
4
4
4
4
4
4
4
4
4
4
4
4
4
4
4
4
4
4
4
4
4
4
4
4
4
4
      </DataArray>
    </Cells>
    <PointData>
      <DataArray type="Float64" NumberOfComponents="3" Name="Displacement" format="ascii">
0 0 0
1.03277e-05 2.44705e-05 0
1.61221e-05 6.84832e-05 0
1.71611e-05 0.000123518 0
1.28768e-05 0.000180636 0
3.38307e-06 0.000228184 0
-9.84025e-06 0.000252931 0
-2.52009e-05 0.000247335 0
-4.19893e-05 0.000209062 0
-5.96127e-05 0.000135066 0
-7.78757e-05 2.50568e-05 0
-9.71999e-05 -0.000120938 0
-0.000117343 -0.000306239 0
-0.000137719 -0.000533672 0
-0.000157408 -0.00080458 0
-0.000175443 -0.00111722 0
-0.000191139 -0.00146772 0
-0.00020411 -0.00185084 0
-0.000213788 -0.00226116 0
-0.000219333 -0.00269235 0
-0.00021971 -0.00313203 0
0 0 0
-1.39601e-05 2.17642e-05 0
-2.32766e-05 6.57586e-05 0
-2.80153e-05 0.000120589 0
-2.81922e-05 0.000177544 0
-2.32625e-05 0.00022551 0
-1.31745e-05 0.000251138 0
6.2313e-07 0.000246199 0
1.65239e-05 0.000208328 0
3.38586e-05 0.000134616 0
5.19872e-05 2.45183e-05 0
7.05698e-05 -0.000121635 0
9.01616e-05 -0.000306772 0
0.000110677 -0.000533752 0
0.000131445 -0.000804103 0
0.000151346 -0.00111627 0
0.000169364 -0.0014664 0
0.00018485 -0.00184912 0
0.000197433 -0.00225899 0
0.000206405 -0.00268973 0
0.00021111 -0.00313133 0
      </DataArray> 
    </PointData>
    <CellData>
    </CellData>
  </Piece>
  </UnstructuredGrid>
</VTKFile>
