<?xml version="1.0"?>
<VTKFile type="UnstructuredGrid">
  <UnstructuredGrid>
  <Piece NumberOfPoints="42"  NumberOfCells="81">
    <Points>
      <DataArray type="Float64" NumberOfComponents="3" format="ascii">
0 0 0
0.299995 -1.33538e-05 0
0.599992 -3.6188e-05 0
0.899989 -6.49908e-05 0
1.19999 -9.92284e-05 0
1.49999 -0.000137273 0
1.79998 -0.000178845 0
2.09998 -0.000223516 0
2.39998 -0.000269601 0
2.69998 -0.00031445 0
2.99998 -0.000358919 0
3.29998 -0.000404183 0
3.59998 -0.000450934 0
3.89998 -0.000502482 0
4.19997 -0.000565805 0
4.49996 -0.000649669 0
4.79995 -0.000755996 0
5.09994 -0.000883725 0
5.39994 -0.00103013 0
5.69993 -0.001192 0
5.99993 -0.00136073 0
0 0.3 0
0.300008 0.299988 0
0.600014 0.299965 0
0.900018 0.299936 0
1.20002 0.299901 0
1.50002 0.299863 0
1.80003 0.299822 0
2.10003 0.299777 0
2.40003 0.299731 0
2.70003 0.299685 0
3.00003 0.299641 0
3.30003 0.299595 0
3.60003 0.299548 0
3.90004 0.299496 0
4.20004 0.299433 0
4.50005 0.29935 0
4.80006 0.299244 0
5.10007 0.299117 0
5.40008 0.298971 0
5.70009 0.29881 0
6.00009 0.29864 0
      </DataArray>
    </Points>
    <Cells>
      <DataArray type="Int32" Name="connectivity" format="ascii">
0 1
1 2
2 3
3 4
4 5
5 6
6 7
7 8
8 9
9 10
10 11
11 12
12 13
13 14
14 15
15 16
16 17
17 18
18 19
19 20
21 22
22 23
23 24
24 25
25 26
26 27
27 28
28 29
29 30
30 31
31 32
32 33
33 34
34 35
35 36
36 37
37 38
38 39
39 40
40 41
0 21
0 22
1 22
1 23
2 23
2 24
3 24
3 25
4 25
4 26
5 26
5 27
6 27
6 28
7 28
7 29
8 29
8 30
9 30
9 31
10 31
10 32
11 32
11 33
12 33
12 34
13 34
13 35
14 35
14 36
15 36
15 37
16 37
16 38
17 38
17 39
18 39
18 40
19 40
19 41
20 41
      </DataArray>
      <DataArray type="Int32" Name="offsets" format="ascii">
2
4
6
8
10
12
14
16
18
20
22
24
26
28
30
32
34
36
38
40
42
44
46
48
50
52
54
56
58
60
62
64
66
68
70
72
74
76
78
80
82
84
86
88
90
92
94
96
98
100
102
104
106
108
110
112
114
116
118
120
122
124
126
128
130
132
134
136
138
140
142
144
146
148
150
152
154
156
158
160
162
      </DataArray>
      <DataArray type="UInt8" Name="types" format="ascii">
4
4
4
4
4
4
4
4
4
4
4
4
4
4
4
4
4
4
4
4
4
4
4
4
4
4
4
4
4
4
4
4
4
4
4
4
4
4
4
4
4
4
4
4
4
4
4
4
4
4
4
4
4
4
4
4
4
4
4
4
4
4
4
4
4
4
4
4
4
4
4
4
4
4
4
4
4
4
4
4
4
      </DataArray>
    </Cells>
    <PointData>
      <DataArray type="Float64" NumberOfComponents="3" Name="Displacement" format="ascii">
0 0 0
-4.99132e-06 -1.33538e-05 0
-8.31093e-06 -3.6188e-05 0
-1.09055e-05 -6.49908e-05 0
-1.28794e-05 -9.92284e-05 0
-1.43866e-05 -0.000137273 0
-1.53963e-05 -0.000178845 0
-1.57793e-05 -0.000223516 0
-1.54415e-05 -0.000269601 0
-1.52266e-05 -0.00031445 0
-1.54211e-05 -0.000358919 0
-1.64392e-05 -0.000404183 0
-1.91273e-05 -0.000450934 0
-2.43124e-05 -0.000502482 0
-3.22186e-05 -0.000565805 0
-4.12422e-05 -0.000649669 0
-5.01394e-05 -0.000755996 0
-5.80145e-05 -0.000883725 0
-6.40962e-05 -0.00103013 0
-6.75864e-05 -0.001192 0
-6.74238e-05 -0.00136073 0
0 0 0
7.97567e-06 -1.20319e-05 0
1.37757e-05 -3.52626e-05 0
1.79492e-05 -6.43408e-05 0
2.12307e-05 -9.8708e-05 0
2.37451e-05 -0.000136897 0
2.58798e-05 -0.000178488 0
2.77173e-05 -0.000223103 0
2.90435e-05 -0.000269417 0
2.9693e-05 -0.000314643 0
3.06288e-05 -0.000359344 0
3.22002e-05 -0.000405001 0
3.46247e-05 -0.000452293 0
3.85837e-05 -0.000504184 0
4.49588e-05 -0.000567075 0
5.4113e-05 -0.000650019 0
6.44439e-05 -0.00075562 0
7.45835e-05 -0.000882778 0
8.35599e-05 -0.00102867 0
9.04292e-05 -0.00118992 0
9.43728e-05 -0.00136006 0
      </DataArray> 
    </PointData>
    <CellData>
    </CellData>
  </Piece>
  </UnstructuredGrid>
</VTKFile>
