<?xml version="1.0"?>
<VTKFile type="UnstructuredGrid">
  <UnstructuredGrid>
  <Piece NumberOfPoints="42"  NumberOfCells="81">
    <Points>
      <DataArray type="Float64" NumberOfComponents="3" format="ascii">
0 0 0
0.300004 -4.35828e-07 0
0.600008 5.38122e-06 0
0.900014 2.03489e-05 0
1.20002 4.82471e-05 0
1.50002 8.85782e-05 0
1.80003 0.000135129 0
2.10003 0.000184734 0
2.40002 0.000234725 0
2.70002 0.000279641 0
3.00001 0.000311224 0
3.3 0.000323981 0
3.59999 0.000315206 0
3.89998 0.000283342 0
4.19997 0.000227801 0
4.49996 0.000146871 0
4.79994 4.13676e-05 0
5.09994 -8.70274e-05 0
5.39993 -0.000233585 0
5.69993 -0.00039255 0
5.99993 -0.000556167 0
0 0.3 0
0.299998 0.3 0
0.599996 0.300006 0
0.899992 0.30002 0
1.19999 0.300048 0
1.49998 0.300087 0
1.79998 0.300134 0
2.09998 0.300183 0
2.39998 0.300233 0
2.69998 0.300278 0
2.99999 0.30031 0
3.3 0.300323 0
3.60001 0.300315 0
3.90002 0.300283 0
4.20003 0.300228 0
4.50005 0.300147 0
4.80006 0.300042 0
5.10007 0.299914 0
5.40008 0.299768 0
5.70008 0.299609 0
6.00009 0.299443 0
      </DataArray>
    </Points>
    <Cells>
      <DataArray type="Int32" Name="connectivity" format="ascii">
0 1
1 2
2 3
3 4
4 5
5 6
6 7
7 8
8 9
9 10
10 11
11 12
12 13
13 14
14 15
15 16
16 17
17 18
18 19
19 20
21 22
22 23
23 24
24 25
25 26
26 27
27 28
28 29
29 30
30 31
31 32
32 33
33 34
34 35
35 36
36 37
37 38
38 39
39 40
40 41
0 21
0 22
1 22
1 23
2 23
2 24
3 24
3 25
4 25
4 26
5 26
5 27
6 27
6 28
7 28
7 29
8 29
8 30
9 30
9 31
10 31
10 32
11 32
11 33
12 33
12 34
13 34
13 35
14 35
14 36
15 36
15 37
16 37
16 38
17 38
17 39
18 39
18 40
19 40
19 41
20 41
      </DataArray>
      <DataArray type="Int32" Name="offsets" format="ascii">
2
4
6
8
10
12
14
16
18
20
22
24
26
28
30
32
34
36
38
40
42
44
46
48
50
52
54
56
58
60
62
64
66
68
70
72
74
76
78
80
82
84
86
88
90
92
94
96
98
100
102
104
106
108
110
112
114
116
118
120
122
124
126
128
130
132
134
136
138
140
142
144
146
148
150
152
154
156
158
160
162
      </DataArray>
      <DataArray type="UInt8" Name="types" format="ascii">
4
4
4
4
4
4
4
4
4
4
4
4
4
4
4
4
4
4
4
4
4
4
4
4
4
4
4
4
4
4
4
4
4
4
4
4
4
4
4
4
4
4
4
4
4
4
4
4
4
4
4
4
4
4
4
4
4
4
4
4
4
4
4
4
4
4
4
4
4
4
4
4
4
4
4
4
4
4
4
4
4
      </DataArray>
    </Cells>
    <PointData>
      <DataArray type="Float64" NumberOfComponents="3" Name="Displacement" format="ascii">
0 0 0
3.71017e-06 -4.35828e-07 0
8.47617e-06 5.38122e-06 0
1.41042e-05 2.03489e-05 0
1.95122e-05 4.82471e-05 0
2.3163e-05 8.85782e-05 0
2.50777e-05 0.000135129 0
2.51907e-05 0.000184734 0
2.27093e-05 0.000234725 0
1.72098e-05 0.000279641 0
9.22394e-06 0.000311224 0
-3.65611e-07 0.000323981 0
-1.09493e-05 0.000315206 0
-2.21161e-05 0.000283342 0
-3.36524e-05 0.000227801 0
-4.48311e-05 0.000146871 0
-5.51201e-05 4.13676e-05 0
-6.36181e-05 -8.70274e-05 0
-6.96196e-05 -0.000233585 0
-7.26266e-05 -0.00039255 0
-7.285e-05 -0.000556167 0
0 0 0
-1.62987e-06 1.01794e-07 0
-4.21611e-06 5.88547e-06 0
-7.88454e-06 2.04666e-05 0
-1.24069e-05 4.75639e-05 0
-1.67309e-05 8.74556e-05 0
-1.92783e-05 0.000134044 0
-2.00629e-05 0.000183447 0
-1.90929e-05 0.000233101 0
-1.55963e-05 0.000278051 0
-9.08413e-06 0.000310034 0
-5.29815e-08 0.000323208 0
1.05546e-05 0.000314759 0
2.19971e-05 0.000283105 0
3.38287e-05 0.000227858 0
4.59961e-05 0.000147347 0
5.78069e-05 4.22929e-05 0
6.84657e-05 -8.5663e-05 0
7.70029e-05 -0.000232015 0
8.28222e-05 -0.000390961 0
8.57457e-05 -0.000556786 0
      </DataArray> 
    </PointData>
    <CellData>
    </CellData>
  </Piece>
  </UnstructuredGrid>
</VTKFile>
