<?xml version="1.0"?>
<VTKFile type="UnstructuredGrid">
  <UnstructuredGrid>
  <Piece NumberOfPoints="42"  NumberOfCells="81">
    <Points>
      <DataArray type="Float64" NumberOfComponents="3" format="ascii">
0 0 0
0.300003 2.00338e-05 0
0.600002 4.43436e-05 0
0.899996 6.33886e-05 0
1.19999 6.95927e-05 0
1.49997 5.56607e-05 0
1.79996 1.37162e-05 0
2.09994 -5.99931e-05 0
2.39992 -0.000166937 0
2.6999 -0.000310621 0
2.99988 -0.000498401 0
3.29986 -0.000735782 0
3.59983 -0.00102279 0
3.89981 -0.00135779 0
4.19979 -0.00173783 0
4.49977 -0.00215764 0
4.79976 -0.00261249 0
5.09975 -0.00309759 0
5.39974 -0.0036046 0
5.69974 -0.00412517 0
5.99973 -0.00465044 0
0 0.3 0
0.299993 0.300017 0
0.59999 0.300042 0
0.899992 0.300061 0
1.2 0.300067 0
1.50001 0.300054 0
1.80002 0.300012 0
2.10004 0.299939 0
2.40005 0.299832 0
2.70007 0.299688 0
3.00009 0.299501 0
3.30012 0.299264 0
3.60014 0.298978 0
3.90016 0.298643 0
4.20018 0.298263 0
4.5002 0.297844 0
4.80022 0.297389 0
5.10023 0.296904 0
5.40024 0.296397 0
5.70025 0.295876 0
6.00025 0.295349 0
      </DataArray>
    </Points>
    <Cells>
      <DataArray type="Int32" Name="connectivity" format="ascii">
0 1
1 2
2 3
3 4
4 5
5 6
6 7
7 8
8 9
9 10
10 11
11 12
12 13
13 14
14 15
15 16
16 17
17 18
18 19
19 20
21 22
22 23
23 24
24 25
25 26
26 27
27 28
28 29
29 30
30 31
31 32
32 33
33 34
34 35
35 36
36 37
37 38
38 39
39 40
40 41
0 21
0 22
1 22
1 23
2 23
2 24
3 24
3 25
4 25
4 26
5 26
5 27
6 27
6 28
7 28
7 29
8 29
8 30
9 30
9 31
10 31
10 32
11 32
11 33
12 33
12 34
13 34
13 35
14 35
14 36
15 36
15 37
16 37
16 38
17 38
17 39
18 39
18 40
19 40
19 41
20 41
      </DataArray>
      <DataArray type="Int32" Name="offsets" format="ascii">
2
4
6
8
10
12
14
16
18
20
22
24
26
28
30
32
34
36
38
40
42
44
46
48
50
52
54
56
58
60
62
64
66
68
70
72
74
76
78
80
82
84
86
88
90
92
94
96
98
100
102
104
106
108
110
112
114
116
118
120
122
124
126
128
130
132
134
136
138
140
142
144
146
148
150
152
154
156
158
160
162
      </DataArray>
      <DataArray type="UInt8" Name="types" format="ascii">
4
4
4
4
4
4
4
4
4
4
4
4
4
4
4
4
4
4
4
4
4
4
4
4
4
4
4
4
4
4
4
4
4
4
4
4
4
4
4
4
4
4
4
4
4
4
4
4
4
4
4
4
4
4
4
4
4
4
4
4
4
4
4
4
4
4
4
4
4
4
4
4
4
4
4
4
4
4
4
4
4
      </DataArray>
    </Cells>
    <PointData>
      <DataArray type="Float64" NumberOfComponents="3" Name="Displacement" format="ascii">
0 0 0
3.23805e-06 2.00338e-05 0
1.64801e-06 4.43436e-05 0
-3.99706e-06 6.33886e-05 0
-1.32622e-05 6.95927e-05 0
-2.58334e-05 5.56607e-05 0
-4.08119e-05 1.37162e-05 0
-5.7538e-05 -5.99931e-05 0
-7.63513e-05 -0.000166937 0
-9.77596e-05 -0.000310621 0
-0.000121142 -0.000498401 0
-0.000144964 -0.000735782 0
-0.000168189 -0.00102279 0
-0.000190158 -0.00135779 0
-0.000209946 -0.00173783 0
-0.000227319 -0.00215764 0
-0.00024207 -0.00261249 0
-0.000253339 -0.00309759 0
-0.000260935 -0.0036046 0
-0.000264895 -0.00412517 0
-0.000265447 -0.00465044 0
0 0 0
-7.44054e-06 1.68228e-05 0
-9.77103e-06 4.15264e-05 0
-7.56419e-06 6.09066e-05 0
-1.37065e-06 6.73354e-05 0
8.51575e-06 5.38082e-05 0
2.17332e-05 1.23826e-05 0
3.7263e-05 -6.11917e-05 0
5.42449e-05 -0.000168368 0
7.28959e-05 -0.000312018 0
9.38333e-05 -0.00049915 0
0.000116707 -0.000735754 0
0.000140112 -0.00102227 0
0.000162911 -0.00135684 0
0.000184354 -0.00173661 0
0.000203564 -0.00215632 0
0.000220338 -0.00261089 0
0.000234332 -0.00309576 0
0.000244588 -0.00360284 0
0.000251095 -0.00412354 0
0.00025402 -0.00465139 0
      </DataArray> 
    </PointData>
    <CellData>
    </CellData>
  </Piece>
  </UnstructuredGrid>
</VTKFile>
