<?xml version="1.0"?>
<VTKFile type="UnstructuredGrid">
  <UnstructuredGrid>
  <Piece NumberOfPoints="42"  NumberOfCells="81">
    <Points>
      <DataArray type="Float64" NumberOfComponents="3" format="ascii">
0 0 0
0.299858 -0.000181528 0
0.599728 -0.000647673 0
0.89961 -0.00137326 0
1.1995 -0.00233241 0
1.49941 -0.0035023 0
1.79932 -0.00486199 0
2.09924 -0.00639029 0
2.39917 -0.00806471 0
2.69911 -0.00986634 0
2.99906 -0.0117788 0
3.29901 -0.0137897 0
3.59896 -0.0158889 0
3.89892 -0.0180676 0
4.19888 -0.0203176 0
4.49885 -0.0226255 0
4.79882 -0.024979 0
5.0988 -0.027367 0
5.39879 -0.0297784 0
5.69877 -0.0322047 0
5.99876 -0.0346356 0
0 0.3 0
0.300154 0.299826 0
0.600296 0.299359 0
0.900425 0.298633 0
1.20054 0.297673 0
1.50065 0.296502 0
1.80074 0.295141 0
2.10082 0.293612 0
2.40089 0.291936 0
2.70095 0.290133 0
3.001 0.288219 0
3.30105 0.286207 0
3.60109 0.284107 0
3.90112 0.281928 0
4.20115 0.279677 0
4.50117 0.277369 0
4.80118 0.275015 0
5.10119 0.272626 0
5.40119 0.270214 0
5.70119 0.267788 0
6.00119 0.265354 0
      </DataArray>
    </Points>
    <Cells>
      <DataArray type="Int32" Name="connectivity" format="ascii">
0 1
1 2
2 3
3 4
4 5
5 6
6 7
7 8
8 9
9 10
10 11
11 12
12 13
13 14
14 15
15 16
16 17
17 18
18 19
19 20
21 22
22 23
23 24
24 25
25 26
26 27
27 28
28 29
29 30
30 31
31 32
32 33
33 34
34 35
35 36
36 37
37 38
38 39
39 40
40 41
0 21
0 22
1 22
1 23
2 23
2 24
3 24
3 25
4 25
4 26
5 26
5 27
6 27
6 28
7 28
7 29
8 29
8 30
9 30
9 31
10 31
10 32
11 32
11 33
12 33
12 34
13 34
13 35
14 35
14 36
15 36
15 37
16 37
16 38
17 38
17 39
18 39
18 40
19 40
19 41
20 41
      </DataArray>
      <DataArray type="Int32" Name="offsets" format="ascii">
2
4
6
8
10
12
14
16
18
20
22
24
26
28
30
32
34
36
38
40
42
44
46
48
50
52
54
56
58
60
62
64
66
68
70
72
74
76
78
80
82
84
86
88
90
92
94
96
98
100
102
104
106
108
110
112
114
116
118
120
122
124
126
128
130
132
134
136
138
140
142
144
146
148
150
152
154
156
158
160
162
      </DataArray>
      <DataArray type="UInt8" Name="types" format="ascii">
4
4
4
4
4
4
4
4
4
4
4
4
4
4
4
4
4
4
4
4
4
4
4
4
4
4
4
4
4
4
4
4
4
4
4
4
4
4
4
4
4
4
4
4
4
4
4
4
4
4
4
4
4
4
4
4
4
4
4
4
4
4
4
4
4
4
4
4
4
4
4
4
4
4
4
4
4
4
4
4
4
      </DataArray>
    </Cells>
    <PointData>
      <DataArray type="Float64" NumberOfComponents="3" Name="Displacement" format="ascii">
0 0 0
-0.000141852 -0.000181528 0
-0.000271661 -0.000647673 0
-0.000389632 -0.00137326 0
-0.000496623 -0.00233241 0
-0.000593435 -0.0035023 0
-0.000680333 -0.00486199 0
-0.000757535 -0.00639029 0
-0.000826163 -0.00806471 0
-0.000887352 -0.00986634 0
-0.000942552 -0.0117788 0
-0.000992745 -0.0137897 0
-0.0010387 -0.0158889 0
-0.00108067 -0.0180676 0
-0.00111755 -0.0203176 0
-0.00114922 -0.0226255 0
-0.00117576 -0.024979 0
-0.00119732 -0.027367 0
-0.00121479 -0.0297784 0
-0.00122827 -0.0322047 0
-0.00123846 -0.0346356 0
0 0 0
0.000153809 -0.0001744 0
0.000295659 -0.000640799 0
0.000424934 -0.00136714 0
0.000541502 -0.00232735 0
0.000645857 -0.00349828 0
0.000738716 -0.0048589 0
0.000820392 -0.00638839 0
0.000891081 -0.00806428 0
0.000951857 -0.00986746 0
0.00100388 -0.0117813 0
0.00104872 -0.0137933 0
0.0010873 -0.0158933 0
0.00112018 -0.0180723 0
0.00114746 -0.0203225 0
0.00116817 -0.022631 0
0.00118256 -0.0249851 0
0.00119117 -0.0273737 0
0.0011944 -0.0297856 0
0.00119295 -0.0322124 0
0.00118685 -0.0346462 0
      </DataArray> 
    </PointData>
    <CellData>
    </CellData>
  </Piece>
  </UnstructuredGrid>
</VTKFile>
