<?xml version="1.0"?>
<VTKFile type="UnstructuredGrid">
  <UnstructuredGrid>
  <Piece NumberOfPoints="42"  NumberOfCells="81">
    <Points>
      <DataArray type="Float64" NumberOfComponents="3" format="ascii">
0 0 0
0.299844 -0.000196718 0
0.599699 -0.000703396 0
0.899566 -0.0014978 0
1.19944 -0.00255685 0
1.49933 -0.00385575 0
1.79923 -0.00536811 0
2.09914 -0.00707364 0
2.39905 -0.00895444 0
2.69898 -0.0109904 0
2.99891 -0.0131618 0
3.29886 -0.0154485 0
3.59881 -0.0178295 0
3.89876 -0.0202865 0
4.19873 -0.0228025 0
4.4987 -0.0253616 0
4.79868 -0.0279529 0
5.09866 -0.0305684 0
5.39864 -0.0332031 0
5.69862 -0.0358515 0
5.99861 -0.0385062 0
0 0.3 0
0.300168 0.29981 0
0.600323 0.299303 0
0.900466 0.298508 0
1.2006 0.297448 0
1.50071 0.296148 0
1.80082 0.294634 0
2.10091 0.292927 0
2.40099 0.291045 0
2.70106 0.289008 0
3.00112 0.286836 0
3.30117 0.284549 0
3.60121 0.282166 0
3.90123 0.279708 0
4.20125 0.277191 0
4.50127 0.274631 0
4.80127 0.272038 0
5.10127 0.269422 0
5.40127 0.266787 0
5.70127 0.264139 0
6.00126 0.261482 0
      </DataArray>
    </Points>
    <Cells>
      <DataArray type="Int32" Name="connectivity" format="ascii">
0 1
1 2
2 3
3 4
4 5
5 6
6 7
7 8
8 9
9 10
10 11
11 12
12 13
13 14
14 15
15 16
16 17
17 18
18 19
19 20
21 22
22 23
23 24
24 25
25 26
26 27
27 28
28 29
29 30
30 31
31 32
32 33
33 34
34 35
35 36
36 37
37 38
38 39
39 40
40 41
0 21
0 22
1 22
1 23
2 23
2 24
3 24
3 25
4 25
4 26
5 26
5 27
6 27
6 28
7 28
7 29
8 29
8 30
9 30
9 31
10 31
10 32
11 32
11 33
12 33
12 34
13 34
13 35
14 35
14 36
15 36
15 37
16 37
16 38
17 38
17 39
18 39
18 40
19 40
19 41
20 41
      </DataArray>
      <DataArray type="Int32" Name="offsets" format="ascii">
2
4
6
8
10
12
14
16
18
20
22
24
26
28
30
32
34
36
38
40
42
44
46
48
50
52
54
56
58
60
62
64
66
68
70
72
74
76
78
80
82
84
86
88
90
92
94
96
98
100
102
104
106
108
110
112
114
116
118
120
122
124
126
128
130
132
134
136
138
140
142
144
146
148
150
152
154
156
158
160
162
      </DataArray>
      <DataArray type="UInt8" Name="types" format="ascii">
4
4
4
4
4
4
4
4
4
4
4
4
4
4
4
4
4
4
4
4
4
4
4
4
4
4
4
4
4
4
4
4
4
4
4
4
4
4
4
4
4
4
4
4
4
4
4
4
4
4
4
4
4
4
4
4
4
4
4
4
4
4
4
4
4
4
4
4
4
4
4
4
4
4
4
4
4
4
4
4
4
      </DataArray>
    </Cells>
    <PointData>
      <DataArray type="Float64" NumberOfComponents="3" Name="Displacement" format="ascii">
0 0 0
-0.000155977 -0.000196718 0
-0.000300648 -0.000703396 0
-0.000434161 -0.0014978 0
-0.000556364 -0.00255685 0
-0.000667463 -0.00385575 0
-0.000768961 -0.00536811 0
-0.000861767 -0.00707364 0
-0.000945747 -0.00895444 0
-0.00102089 -0.0109904 0
-0.00108714 -0.0131618 0
-0.00114446 -0.0154485 0
-0.00119355 -0.0178295 0
-0.00123501 -0.0202865 0
-0.00126943 -0.0228025 0
-0.00129841 -0.0253616 0
-0.00132311 -0.0279529 0
-0.00134469 -0.0305684 0
-0.00136328 -0.0332031 0
-0.00137877 -0.0358515 0
-0.00139065 -0.0385062 0
0 0 0
0.000168027 -0.000189614 0
0.00032316 -0.000697001 0
0.000465761 -0.00149206 0
0.000595735 -0.00255187 0
0.000712829 -0.00385209 0
0.000816937 -0.0053661 0
0.000909201 -0.00707288 0
0.000990441 -0.00895467 0
0.0010606 -0.0109916 0
0.00111981 -0.0131638 0
0.00116824 -0.0154515 0
0.00120608 -0.0178336 0
0.00123431 -0.0202918 0
0.00125383 -0.0228091 0
0.00126568 -0.0253695 0
0.0012717 -0.0279617 0
0.00127309 -0.0305778 0
0.00127112 -0.0332127 0
0.00126607 -0.0358611 0
0.00125796 -0.0385179 0
      </DataArray> 
    </PointData>
    <CellData>
    </CellData>
  </Piece>
  </UnstructuredGrid>
</VTKFile>
