<?xml version="1.0"?>
<VTKFile type="UnstructuredGrid">
  <UnstructuredGrid>
  <Piece NumberOfPoints="42"  NumberOfCells="81">
    <Points>
      <DataArray type="Float64" NumberOfComponents="3" format="ascii">
0 0 0
0.299913 -9.16958e-05 0
0.599828 -0.0003563 0
0.899744 -0.000790804 0
1.19966 -0.00139356 0
1.49958 -0.00216123 0
1.7995 -0.00308739 0
2.09943 -0.00416373 0
2.39936 -0.00538127 0
2.6993 -0.00673238 0
2.99924 -0.00820752 0
3.29919 -0.0097936 0
3.59914 -0.0114754 0
3.8991 -0.0132387 0
4.19906 -0.0150726 0
4.49903 -0.0169687 0
4.799 -0.0189199 0
5.09898 -0.0209148 0
5.39896 -0.0229417 0
5.69895 -0.0249913 0
5.99894 -0.0270482 0
0 0.3 0
0.300088 0.299909 0
0.600174 0.299644 0
0.900258 0.29921 0
1.20034 0.298607 0
1.50042 0.29784 0
1.8005 0.296913 0
2.10057 0.295837 0
2.40064 0.294619 0
2.7007 0.293268 0
3.00076 0.291793 0
3.30081 0.290206 0
3.60085 0.288524 0
3.90089 0.286759 0
4.20092 0.284925 0
4.50094 0.283028 0
4.80096 0.281077 0
5.10098 0.279082 0
5.40098 0.277055 0
5.70099 0.275005 0
6.00099 0.272944 0
      </DataArray>
    </Points>
    <Cells>
      <DataArray type="Int32" Name="connectivity" format="ascii">
0 1
1 2
2 3
3 4
4 5
5 6
6 7
7 8
8 9
9 10
10 11
11 12
12 13
13 14
14 15
15 16
16 17
17 18
18 19
19 20
21 22
22 23
23 24
24 25
25 26
26 27
27 28
28 29
29 30
30 31
31 32
32 33
33 34
34 35
35 36
36 37
37 38
38 39
39 40
40 41
0 21
0 22
1 22
1 23
2 23
2 24
3 24
3 25
4 25
4 26
5 26
5 27
6 27
6 28
7 28
7 29
8 29
8 30
9 30
9 31
10 31
10 32
11 32
11 33
12 33
12 34
13 34
13 35
14 35
14 36
15 36
15 37
16 37
16 38
17 38
17 39
18 39
18 40
19 40
19 41
20 41
      </DataArray>
      <DataArray type="Int32" Name="offsets" format="ascii">
2
4
6
8
10
12
14
16
18
20
22
24
26
28
30
32
34
36
38
40
42
44
46
48
50
52
54
56
58
60
62
64
66
68
70
72
74
76
78
80
82
84
86
88
90
92
94
96
98
100
102
104
106
108
110
112
114
116
118
120
122
124
126
128
130
132
134
136
138
140
142
144
146
148
150
152
154
156
158
160
162
      </DataArray>
      <DataArray type="UInt8" Name="types" format="ascii">
4
4
4
4
4
4
4
4
4
4
4
4
4
4
4
4
4
4
4
4
4
4
4
4
4
4
4
4
4
4
4
4
4
4
4
4
4
4
4
4
4
4
4
4
4
4
4
4
4
4
4
4
4
4
4
4
4
4
4
4
4
4
4
4
4
4
4
4
4
4
4
4
4
4
4
4
4
4
4
4
4
      </DataArray>
    </Cells>
    <PointData>
      <DataArray type="Float64" NumberOfComponents="3" Name="Displacement" format="ascii">
0 0 0
-8.67665e-05 -9.16958e-05 0
-0.000172163 -0.0003563 0
-0.000256442 -0.000790804 0
-0.000338966 -0.00139356 0
-0.000418854 -0.00216123 0
-0.000495368 -0.00308739 0
-0.000568156 -0.00416373 0
-0.000637108 -0.00538127 0
-0.00070152 -0.00673238 0
-0.000760405 -0.00820752 0
-0.000813242 -0.0097936 0
-0.000860159 -0.0114754 0
-0.000901914 -0.0132387 0
-0.000939235 -0.0150726 0
-0.000972355 -0.0169687 0
-0.00100059 -0.0189199 0
-0.00102351 -0.0209148 0
-0.00104154 -0.0229417 0
-0.00105402 -0.0249913 0
-0.00106139 -0.0270482 0
0 0 0
8.78459e-05 -9.07497e-05 0
0.00017395 -0.000355511 0
0.00025817 -0.000790102 0
0.000340547 -0.00139274 0
0.000420524 -0.00216032 0
0.00049721 -0.00308662 0
0.000569563 -0.00416336 0
0.00063695 -0.00538121 0
0.000699273 -0.00673231 0
0.000755968 -0.00820746 0
0.000806065 -0.00979389 0
0.000849024 -0.0114765 0
0.00088505 -0.0132408 0
0.000915126 -0.0150754 0
0.000940135 -0.0169718 0
0.000960393 -0.018923 0
0.000975312 -0.0209183 0
0.000984612 -0.0229454 0
0.000988698 -0.0249952 0
0.000986939 -0.0270556 0
      </DataArray> 
    </PointData>
    <CellData>
    </CellData>
  </Piece>
  </UnstructuredGrid>
</VTKFile>
