<?xml version="1.0"?>
<VTKFile type="UnstructuredGrid">
  <UnstructuredGrid>
  <Piece NumberOfPoints="42"  NumberOfCells="81">
    <Points>
      <DataArray type="Float64" NumberOfComponents="3" format="ascii">
0 0 0
0.299925 -9.12495e-05 0
0.599854 -0.000333081 0
0.899789 -0.00071617 0
1.19973 -0.00122883 0
1.49967 -0.00186261 0
1.79961 -0.00261127 0
2.09956 -0.0034683 0
2.39951 -0.00442625 0
2.69946 -0.00548155 0
2.99942 -0.00663049 0
3.29937 -0.00786552 0
3.59933 -0.00917981 0
3.8993 -0.0105686 0
4.19926 -0.0120266 0
4.49923 -0.0135461 0
4.79921 -0.0151164 0
5.09919 -0.0167242 0
5.39918 -0.0183581 0
5.69917 -0.0200083 0
5.99917 -0.0216634 0
0 0.3 0
0.30008 0.299912 0
0.600155 0.29967 0
0.900226 0.299286 0
1.20029 0.298773 0
1.50035 0.298139 0
1.80041 0.29739 0
2.10046 0.296532 0
2.40051 0.295574 0
2.70056 0.294518 0
3.0006 0.293369 0
3.30064 0.292134 0
3.60068 0.290819 0
3.90071 0.28943 0
4.20074 0.287973 0
4.50077 0.286453 0
4.80079 0.284883 0
5.1008 0.283275 0
5.40081 0.28164 0
5.70082 0.27999 0
6.00082 0.278333 0
      </DataArray>
    </Points>
    <Cells>
      <DataArray type="Int32" Name="connectivity" format="ascii">
0 1
1 2
2 3
3 4
4 5
5 6
6 7
7 8
8 9
9 10
10 11
11 12
12 13
13 14
14 15
15 16
16 17
17 18
18 19
19 20
21 22
22 23
23 24
24 25
25 26
26 27
27 28
28 29
29 30
30 31
31 32
32 33
33 34
34 35
35 36
36 37
37 38
38 39
39 40
40 41
0 21
0 22
1 22
1 23
2 23
2 24
3 24
3 25
4 25
4 26
5 26
5 27
6 27
6 28
7 28
7 29
8 29
8 30
9 30
9 31
10 31
10 32
11 32
11 33
12 33
12 34
13 34
13 35
14 35
14 36
15 36
15 37
16 37
16 38
17 38
17 39
18 39
18 40
19 40
19 41
20 41
      </DataArray>
      <DataArray type="Int32" Name="offsets" format="ascii">
2
4
6
8
10
12
14
16
18
20
22
24
26
28
30
32
34
36
38
40
42
44
46
48
50
52
54
56
58
60
62
64
66
68
70
72
74
76
78
80
82
84
86
88
90
92
94
96
98
100
102
104
106
108
110
112
114
116
118
120
122
124
126
128
130
132
134
136
138
140
142
144
146
148
150
152
154
156
158
160
162
      </DataArray>
      <DataArray type="UInt8" Name="types" format="ascii">
4
4
4
4
4
4
4
4
4
4
4
4
4
4
4
4
4
4
4
4
4
4
4
4
4
4
4
4
4
4
4
4
4
4
4
4
4
4
4
4
4
4
4
4
4
4
4
4
4
4
4
4
4
4
4
4
4
4
4
4
4
4
4
4
4
4
4
4
4
4
4
4
4
4
4
4
4
4
4
4
4
      </DataArray>
    </Cells>
    <PointData>
      <DataArray type="Float64" NumberOfComponents="3" Name="Displacement" format="ascii">
0 0 0
-7.51158e-05 -9.12495e-05 0
-0.000145558 -0.000333081 0
-0.000211221 -0.00071617 0
-0.000273013 -0.00122883 0
-0.000331535 -0.00186261 0
-0.000387045 -0.00261127 0
-0.000439534 -0.0034683 0
-0.000489729 -0.00442625 0
-0.000537865 -0.00548155 0
-0.000583265 -0.00663049 0
-0.000625819 -0.00786552 0
-0.000665767 -0.00917981 0
-0.0007028 -0.0105686 0
-0.000736248 -0.0120266 0
-0.000765121 -0.0135461 0
-0.000788494 -0.0151164 0
-0.000806553 -0.0167242 0
-0.000819671 -0.0183581 0
-0.000828398 -0.0200083 0
-0.000833031 -0.0216634 0
0 0 0
8.00082e-05 -8.8352e-05 0
0.000155349 -0.000330232 0
0.000225954 -0.000713652 0
0.000291226 -0.00122695 0
0.000351829 -0.00186125 0
0.000408417 -0.00261029 0
0.000461413 -0.00346784 0
0.000510947 -0.00442635 0
0.000557686 -0.00548181 0
0.000601641 -0.00663087 0
0.000641974 -0.00786632 0
0.000678649 -0.00918093 0
0.000712117 -0.0105697 0
0.000742109 -0.0120275 0
0.000767821 -0.0135468 0
0.000788249 -0.0151173 0
0.000802778 -0.0167254 0
0.000811858 -0.0183598 0
0.000815836 -0.0200103 0
0.000815242 -0.0216675 0
      </DataArray> 
    </PointData>
    <CellData>
    </CellData>
  </Piece>
  </UnstructuredGrid>
</VTKFile>
