<?xml version="1.0"?>
<VTKFile type="UnstructuredGrid">
  <UnstructuredGrid>
  <Piece NumberOfPoints="42"  NumberOfCells="81">
    <Points>
      <DataArray type="Float64" NumberOfComponents="3" format="ascii">
0 0 0
0.299897 -0.000113651 0
0.599799 -0.000430357 0
0.899703 -0.000943325 0
1.19961 -0.00164564 0
1.49953 -0.00252804 0
1.79945 -0.00357972 0
2.09937 -0.00478823 0
2.3993 -0.0061389 0
2.69924 -0.00761671 0
2.99919 -0.00920945 0
3.29914 -0.0109032 0
3.5991 -0.0126822 0
3.89906 -0.0145337 0
4.19903 -0.0164458 0
4.499 -0.0184067 0
4.79898 -0.020407 0
5.09896 -0.0224424 0
5.39894 -0.0245065 0
5.69893 -0.0265906 0
5.99892 -0.0286808 0
0 0.3 0
0.300105 0.299889 0
0.600205 0.299572 0
0.900302 0.299059 0
1.20039 0.298356 0
1.50048 0.297474 0
1.80056 0.296422 0
2.10064 0.295213 0
2.4007 0.293862 0
2.70076 0.292384 0
3.00082 0.29079 0
3.30086 0.289096 0
3.6009 0.287316 0
3.90093 0.285464 0
4.20095 0.283551 0
4.50097 0.281589 0
4.80099 0.279588 0
5.101 0.277553 0
5.401 0.275489 0
5.701 0.273405 0
6.001 0.271312 0
      </DataArray>
    </Points>
    <Cells>
      <DataArray type="Int32" Name="connectivity" format="ascii">
0 1
1 2
2 3
3 4
4 5
5 6
6 7
7 8
8 9
9 10
10 11
11 12
12 13
13 14
14 15
15 16
16 17
17 18
18 19
19 20
21 22
22 23
23 24
24 25
25 26
26 27
27 28
28 29
29 30
30 31
31 32
32 33
33 34
34 35
35 36
36 37
37 38
38 39
39 40
40 41
0 21
0 22
1 22
1 23
2 23
2 24
3 24
3 25
4 25
4 26
5 26
5 27
6 27
6 28
7 28
7 29
8 29
8 30
9 30
9 31
10 31
10 32
11 32
11 33
12 33
12 34
13 34
13 35
14 35
14 36
15 36
15 37
16 37
16 38
17 38
17 39
18 39
18 40
19 40
19 41
20 41
      </DataArray>
      <DataArray type="Int32" Name="offsets" format="ascii">
2
4
6
8
10
12
14
16
18
20
22
24
26
28
30
32
34
36
38
40
42
44
46
48
50
52
54
56
58
60
62
64
66
68
70
72
74
76
78
80
82
84
86
88
90
92
94
96
98
100
102
104
106
108
110
112
114
116
118
120
122
124
126
128
130
132
134
136
138
140
142
144
146
148
150
152
154
156
158
160
162
      </DataArray>
      <DataArray type="UInt8" Name="types" format="ascii">
4
4
4
4
4
4
4
4
4
4
4
4
4
4
4
4
4
4
4
4
4
4
4
4
4
4
4
4
4
4
4
4
4
4
4
4
4
4
4
4
4
4
4
4
4
4
4
4
4
4
4
4
4
4
4
4
4
4
4
4
4
4
4
4
4
4
4
4
4
4
4
4
4
4
4
4
4
4
4
4
4
      </DataArray>
    </Cells>
    <PointData>
      <DataArray type="Float64" NumberOfComponents="3" Name="Displacement" format="ascii">
0 0 0
-0.00010254 -0.000113651 0
-0.000201363 -0.000430357 0
-0.000296583 -0.000943325 0
-0.000387562 -0.00164564 0
-0.000473617 -0.00252804 0
-0.000553928 -0.00357972 0
-0.000627772 -0.00478823 0
-0.000695094 -0.0061389 0
-0.000756408 -0.00761671 0
-0.000811432 -0.00920945 0
-0.000859987 -0.0109032 0
-0.000902658 -0.0126822 0
-0.000939853 -0.0145337 0
-0.000971849 -0.0164458 0
-0.000999427 -0.0184067 0
-0.00102379 -0.020407 0
-0.00104471 -0.0224424 0
-0.00106164 -0.0245065 0
-0.00107368 -0.0265906 0
-0.00108124 -0.0286808 0
0 0 0
0.000104517 -0.000111359 0
0.000205138 -0.00042828 0
0.000301758 -0.000941317 0
0.000394047 -0.00164361 0
0.000480996 -0.00252609 0
0.000561964 -0.00357787 0
0.000636388 -0.00478663 0
0.000703605 -0.0061379 0
0.000763356 -0.00761633 0
0.000815986 -0.00920951 0
0.000861166 -0.0109039 0
0.00089877 -0.0126837 0
0.000929433 -0.014536 0
0.000953784 -0.0164489 0
0.000972412 -0.0184107 0
0.000986229 -0.0204116 0
0.000996397 -0.022447 0
0.00100271 -0.0245109 0
0.0010048 -0.0265952 0
0.0010019 -0.0286881 0
      </DataArray> 
    </PointData>
    <CellData>
    </CellData>
  </Piece>
  </UnstructuredGrid>
</VTKFile>
