<?xml version="1.0"?>
<VTKFile type="UnstructuredGrid">
  <UnstructuredGrid>
  <Piece NumberOfPoints="42"  NumberOfCells="81">
    <Points>
      <DataArray type="Float64" NumberOfComponents="3" format="ascii">
0 0 0
0.299877 -0.000143307 0
0.59976 -0.000531238 0
0.899649 -0.00115241 0
1.19955 -0.00199416 0
1.49945 -0.0030401 0
1.79936 -0.00427179 0
2.09929 -0.00567151 0
2.39921 -0.00722097 0
2.69915 -0.00890281 0
2.9991 -0.0107011 0
3.29905 -0.0125997 0
3.599 -0.0145846 0
3.89896 -0.0166453 0
4.19893 -0.0187698 0
4.4989 -0.020942 0
4.79888 -0.0231498 0
5.09886 -0.0253853 0
5.39885 -0.0276429 0
5.69883 -0.0299153 0
5.99882 -0.0321926 0
0 0.3 0
0.300128 0.29986 0
0.60025 0.299472 0
0.900365 0.298851 0
1.20047 0.298009 0
1.50057 0.296963 0
1.80066 0.295731 0
2.10074 0.29433 0
2.40081 0.29278 0
2.70087 0.291097 0
3.00093 0.289298 0
3.30097 0.287398 0
3.60101 0.285413 0
3.90104 0.283351 0
4.20106 0.281226 0
4.50108 0.279053 0
4.80109 0.276845 0
5.1011 0.274609 0
5.4011 0.272351 0
5.7011 0.270079 0
6.00109 0.267799 0
      </DataArray>
    </Points>
    <Cells>
      <DataArray type="Int32" Name="connectivity" format="ascii">
0 1
1 2
2 3
3 4
4 5
5 6
6 7
7 8
8 9
9 10
10 11
11 12
12 13
13 14
14 15
15 16
16 17
17 18
18 19
19 20
21 22
22 23
23 24
24 25
25 26
26 27
27 28
28 29
29 30
30 31
31 32
32 33
33 34
34 35
35 36
36 37
37 38
38 39
39 40
40 41
0 21
0 22
1 22
1 23
2 23
2 24
3 24
3 25
4 25
4 26
5 26
5 27
6 27
6 28
7 28
7 29
8 29
8 30
9 30
9 31
10 31
10 32
11 32
11 33
12 33
12 34
13 34
13 35
14 35
14 36
15 36
15 37
16 37
16 38
17 38
17 39
18 39
18 40
19 40
19 41
20 41
      </DataArray>
      <DataArray type="Int32" Name="offsets" format="ascii">
2
4
6
8
10
12
14
16
18
20
22
24
26
28
30
32
34
36
38
40
42
44
46
48
50
52
54
56
58
60
62
64
66
68
70
72
74
76
78
80
82
84
86
88
90
92
94
96
98
100
102
104
106
108
110
112
114
116
118
120
122
124
126
128
130
132
134
136
138
140
142
144
146
148
150
152
154
156
158
160
162
      </DataArray>
      <DataArray type="UInt8" Name="types" format="ascii">
4
4
4
4
4
4
4
4
4
4
4
4
4
4
4
4
4
4
4
4
4
4
4
4
4
4
4
4
4
4
4
4
4
4
4
4
4
4
4
4
4
4
4
4
4
4
4
4
4
4
4
4
4
4
4
4
4
4
4
4
4
4
4
4
4
4
4
4
4
4
4
4
4
4
4
4
4
4
4
4
4
      </DataArray>
    </Cells>
    <PointData>
      <DataArray type="Float64" NumberOfComponents="3" Name="Displacement" format="ascii">
0 0 0
-0.00012316 -0.000143307 0
-0.000240274 -0.000531238 0
-0.000350878 -0.00115241 0
-0.000454003 -0.00199416 0
-0.000548978 -0.0030401 0
-0.000635776 -0.00427179 0
-0.000714438 -0.00567151 0
-0.000785159 -0.00722097 0
-0.000848441 -0.00890281 0
-0.000904649 -0.0107011 0
-0.000954462 -0.0125997 0
-0.000998904 -0.0145846 0
-0.00103761 -0.0166453 0
-0.00106999 -0.0187698 0
-0.00109688 -0.020942 0
-0.00111952 -0.0231498 0
-0.00113888 -0.0253853 0
-0.00115474 -0.0276429 0
-0.00116716 -0.0299153 0
-0.00117557 -0.0321926 0
0 0 0
0.00012842 -0.000139625 0
0.000249918 -0.000527761 0
0.000364501 -0.00114892 0
0.000471771 -0.00199071 0
0.000570708 -0.00303704 0
0.000660447 -0.00426936 0
0.000740828 -0.00566984 0
0.000811818 -0.00722022 0
0.000873656 -0.00890298 0
0.000926922 -0.0107022 0
0.000971964 -0.0126018 0
0.0010094 -0.0145875 0
0.00104023 -0.0166486 0
0.00106434 -0.0187736 0
0.00108143 -0.0209467 0
0.00109249 -0.0231553 0
0.00109879 -0.0253913 0
0.00110122 -0.027649 0
0.00109982 -0.0299214 0
0.00109488 -0.0322006 0
      </DataArray> 
    </PointData>
    <CellData>
    </CellData>
  </Piece>
  </UnstructuredGrid>
</VTKFile>
