<?xml version="1.0"?>
<VTKFile type="UnstructuredGrid">
  <UnstructuredGrid>
  <Piece NumberOfPoints="42"  NumberOfCells="81">
    <Points>
      <DataArray type="Float64" NumberOfComponents="3" format="ascii">
0 0 0
0.299844 -0.000189461 0
0.599698 -0.00069087 0
0.899562 -0.00148339 0
1.19944 -0.00254336 0
1.49932 -0.00384788 0
1.79922 -0.00537583 0
2.09912 -0.00710713 0
2.39904 -0.00901969 0
2.69897 -0.0110875 0
2.9989 -0.0132856 0
3.29885 -0.0155939 0
3.5988 -0.0179931 0
3.89876 -0.0204648 0
4.19872 -0.0229962 0
4.49869 -0.0255771 0
4.79867 -0.028196 0
5.09865 -0.0308421 0
5.39863 -0.0335086 0
5.69861 -0.0361891 0
5.9986 -0.0388745 0
0 0.3 0
0.300165 0.299817 0
0.60032 0.299315 0
0.900464 0.298522 0
1.2006 0.297461 0
1.50071 0.296155 0
1.80082 0.294627 0
2.10092 0.292895 0
2.401 0.290981 0
2.70107 0.288912 0
3.00113 0.286712 0
3.30118 0.284403 0
3.60122 0.282002 0
3.90125 0.279529 0
4.20127 0.276996 0
4.50128 0.274415 0
4.80129 0.271795 0
5.10129 0.269149 0
5.40129 0.266482 0
5.70129 0.263801 0
6.00128 0.261113 0
      </DataArray>
    </Points>
    <Cells>
      <DataArray type="Int32" Name="connectivity" format="ascii">
0 1
1 2
2 3
3 4
4 5
5 6
6 7
7 8
8 9
9 10
10 11
11 12
12 13
13 14
14 15
15 16
16 17
17 18
18 19
19 20
21 22
22 23
23 24
24 25
25 26
26 27
27 28
28 29
29 30
30 31
31 32
32 33
33 34
34 35
35 36
36 37
37 38
38 39
39 40
40 41
0 21
0 22
1 22
1 23
2 23
2 24
3 24
3 25
4 25
4 26
5 26
5 27
6 27
6 28
7 28
7 29
8 29
8 30
9 30
9 31
10 31
10 32
11 32
11 33
12 33
12 34
13 34
13 35
14 35
14 36
15 36
15 37
16 37
16 38
17 38
17 39
18 39
18 40
19 40
19 41
20 41
      </DataArray>
      <DataArray type="Int32" Name="offsets" format="ascii">
2
4
6
8
10
12
14
16
18
20
22
24
26
28
30
32
34
36
38
40
42
44
46
48
50
52
54
56
58
60
62
64
66
68
70
72
74
76
78
80
82
84
86
88
90
92
94
96
98
100
102
104
106
108
110
112
114
116
118
120
122
124
126
128
130
132
134
136
138
140
142
144
146
148
150
152
154
156
158
160
162
      </DataArray>
      <DataArray type="UInt8" Name="types" format="ascii">
4
4
4
4
4
4
4
4
4
4
4
4
4
4
4
4
4
4
4
4
4
4
4
4
4
4
4
4
4
4
4
4
4
4
4
4
4
4
4
4
4
4
4
4
4
4
4
4
4
4
4
4
4
4
4
4
4
4
4
4
4
4
4
4
4
4
4
4
4
4
4
4
4
4
4
4
4
4
4
4
4
      </DataArray>
    </Cells>
    <PointData>
      <DataArray type="Float64" NumberOfComponents="3" Name="Displacement" format="ascii">
0 0 0
-0.000156334 -0.000189461 0
-0.000302385 -0.00069087 0
-0.000437649 -0.00148339 0
-0.000562242 -0.00254336 0
-0.000676691 -0.00384788 0
-0.00078143 -0.00537583 0
-0.000876097 -0.00710713 0
-0.000959989 -0.00901969 0
-0.00103324 -0.0110875 0
-0.00109712 -0.0132856 0
-0.00115237 -0.0155939 0
-0.00119969 -0.0179931 0
-0.00124059 -0.0204648 0
-0.00127608 -0.0229962 0
-0.0013065 -0.0255771 0
-0.00133229 -0.028196 0
-0.00135435 -0.0308421 0
-0.00137328 -0.0335086 0
-0.00138874 -0.0361891 0
-0.001401 -0.0388745 0
0 0 0
0.000165337 -0.000183343 0
0.000320026 -0.000684964 0
0.000463517 -0.00147803 0
0.00059509 -0.00253899 0
0.000714743 -0.0038446 0
0.000822684 -0.00537346 0
0.000918982 -0.00710545 0
0.0010031 -0.00901891 0
0.00107436 -0.0110882 0
0.00113305 -0.0132878 0
0.00118059 -0.0155974 0
0.00121791 -0.017998 0
0.00124603 -0.0204712 0
0.00126672 -0.0230035 0
0.00128112 -0.0255851 0
0.00128963 -0.0282047 0
0.0012929 -0.0308515 0
0.00129193 -0.0335183 0
0.0012872 -0.0361991 0
0.00127861 -0.0388872 0
      </DataArray> 
    </PointData>
    <CellData>
    </CellData>
  </Piece>
  </UnstructuredGrid>
</VTKFile>
