<?xml version="1.0"?>
<VTKFile type="UnstructuredGrid">
  <UnstructuredGrid>
  <Piece NumberOfPoints="42"  NumberOfCells="81">
    <Points>
      <DataArray type="Float64" NumberOfComponents="3" format="ascii">
0 0 0
0.299999 -4.21088e-06 0
0.599999 -5.85524e-06 0
0.899998 -5.71167e-06 0
1.2 -7.01452e-06 0
1.49999 -1.13937e-05 0
1.79999 -1.8429e-05 0
2.09999 -2.84792e-05 0
2.39999 -4.09768e-05 0
2.69999 -5.70126e-05 0
2.99998 -7.65925e-05 0
3.29998 -9.88379e-05 0
3.59998 -0.000122552 0
3.89998 -0.000145776 0
4.19998 -0.000167151 0
4.49998 -0.000186725 0
4.79998 -0.000208749 0
5.09997 -0.000237145 0
5.39997 -0.000276727 0
5.69996 -0.000327795 0
5.99996 -0.000384429 0
0 0.3 0
0.300001 0.299996 0
0.600001 0.299994 0
0.9 0.299994 0
1.2 0.299993 0
1.5 0.299988 0
1.8 0.299982 0
2.1 0.299971 0
2.4 0.299959 0
2.7 0.299943 0
3 0.299924 0
3.30001 0.299901 0
3.60001 0.299878 0
3.9 0.299854 0
4.2 0.299832 0
4.5 0.299813 0
4.8 0.299791 0
5.10001 0.299763 0
5.40001 0.299724 0
5.70001 0.299674 0
6.00002 0.299615 0
      </DataArray>
    </Points>
    <Cells>
      <DataArray type="Int32" Name="connectivity" format="ascii">
0 1
1 2
2 3
3 4
4 5
5 6
6 7
7 8
8 9
9 10
10 11
11 12
12 13
13 14
14 15
15 16
16 17
17 18
18 19
19 20
21 22
22 23
23 24
24 25
25 26
26 27
27 28
28 29
29 30
30 31
31 32
32 33
33 34
34 35
35 36
36 37
37 38
38 39
39 40
40 41
0 21
0 22
1 22
1 23
2 23
2 24
3 24
3 25
4 25
4 26
5 26
5 27
6 27
6 28
7 28
7 29
8 29
8 30
9 30
9 31
10 31
10 32
11 32
11 33
12 33
12 34
13 34
13 35
14 35
14 36
15 36
15 37
16 37
16 38
17 38
17 39
18 39
18 40
19 40
19 41
20 41
      </DataArray>
      <DataArray type="Int32" Name="offsets" format="ascii">
2
4
6
8
10
12
14
16
18
20
22
24
26
28
30
32
34
36
38
40
42
44
46
48
50
52
54
56
58
60
62
64
66
68
70
72
74
76
78
80
82
84
86
88
90
92
94
96
98
100
102
104
106
108
110
112
114
116
118
120
122
124
126
128
130
132
134
136
138
140
142
144
146
148
150
152
154
156
158
160
162
      </DataArray>
      <DataArray type="UInt8" Name="types" format="ascii">
4
4
4
4
4
4
4
4
4
4
4
4
4
4
4
4
4
4
4
4
4
4
4
4
4
4
4
4
4
4
4
4
4
4
4
4
4
4
4
4
4
4
4
4
4
4
4
4
4
4
4
4
4
4
4
4
4
4
4
4
4
4
4
4
4
4
4
4
4
4
4
4
4
4
4
4
4
4
4
4
4
      </DataArray>
    </Cells>
    <PointData>
      <DataArray type="Float64" NumberOfComponents="3" Name="Displacement" format="ascii">
0 0 0
-5.97495e-07 -4.21088e-06 0
-1.11162e-06 -5.85524e-06 0
-2.26506e-06 -5.71167e-06 0
-3.94356e-06 -7.01452e-06 0
-5.66802e-06 -1.13937e-05 0
-7.51453e-06 -1.8429e-05 0
-9.44719e-06 -2.84792e-05 0
-1.16602e-05 -4.09768e-05 0
-1.38783e-05 -5.70126e-05 0
-1.5788e-05 -7.65925e-05 0
-1.72062e-05 -9.88379e-05 0
-1.81189e-05 -0.000122552 0
-1.8757e-05 -0.000145776 0
-1.95563e-05 -0.000167151 0
-2.14914e-05 -0.000186725 0
-2.47837e-05 -0.000208749 0
-2.93004e-05 -0.000237145 0
-3.37999e-05 -0.000276727 0
-3.65623e-05 -0.000327795 0
-3.65738e-05 -0.000384429 0
0 0 0
1.30296e-06 -3.72698e-06 0
1.0168e-06 -6.0835e-06 0
4.75231e-07 -6.19642e-06 0
4.52023e-07 -7.33057e-06 0
1.01865e-06 -1.15303e-05 0
1.75578e-06 -1.84875e-05 0
2.5678e-06 -2.85097e-05 0
3.22813e-06 -4.09494e-05 0
3.9682e-06 -5.68231e-05 0
4.71869e-06 -7.6302e-05 0
5.2959e-06 -9.85242e-05 0
5.38955e-06 -0.000122347 0
4.75203e-06 -0.00014582 0
3.65778e-06 -0.000167621 0
2.85792e-06 -0.000187489 0
3.54472e-06 -0.000209477 0
5.86167e-06 -0.000237474 0
9.46918e-06 -0.0002762 0
1.32948e-05 -0.000326449 0
1.5708e-05 -0.000385089 0
      </DataArray> 
    </PointData>
    <CellData>
    </CellData>
  </Piece>
  </UnstructuredGrid>
</VTKFile>
