<?xml version="1.0"?>
<VTKFile type="UnstructuredGrid">
  <UnstructuredGrid>
  <Piece NumberOfPoints="42"  NumberOfCells="81">
    <Points>
      <DataArray type="Float64" NumberOfComponents="3" format="ascii">
0 0 0
0.299944 -7.54546e-05 0
0.599894 -0.00026257 0
0.899848 -0.000550532 0
1.19981 -0.000929808 0
1.49977 -0.00138974 0
1.79974 -0.00191977 0
2.09971 -0.00251071 0
2.39969 -0.00315178 0
2.69967 -0.00383312 0
2.99965 -0.00455191 0
3.29963 -0.00530679 0
3.59962 -0.0060947 0
3.8996 -0.00691519 0
4.19958 -0.0077699 0
4.49956 -0.0086604 0
4.79955 -0.00958549 0
5.09954 -0.0105394 0
5.39953 -0.0115148 0
5.69952 -0.0125051 0
5.99952 -0.013502 0
0 0.3 0
0.300062 0.299928 0
0.600119 0.299741 0
0.90017 0.299452 0
1.20022 0.299073 0
1.50026 0.298613 0
1.80029 0.298083 0
2.10032 0.297491 0
2.40035 0.296849 0
2.70037 0.296167 0
3.00039 0.295448 0
3.3004 0.294693 0
3.60042 0.293904 0
3.90044 0.293084 0
4.20045 0.292229 0
4.50047 0.291339 0
4.80048 0.290415 0
5.10049 0.289461 0
5.4005 0.288486 0
5.70051 0.287495 0
6.00051 0.286496 0
      </DataArray>
    </Points>
    <Cells>
      <DataArray type="Int32" Name="connectivity" format="ascii">
0 1
1 2
2 3
3 4
4 5
5 6
6 7
7 8
8 9
9 10
10 11
11 12
12 13
13 14
14 15
15 16
16 17
17 18
18 19
19 20
21 22
22 23
23 24
24 25
25 26
26 27
27 28
28 29
29 30
30 31
31 32
32 33
33 34
34 35
35 36
36 37
37 38
38 39
39 40
40 41
0 21
0 22
1 22
1 23
2 23
2 24
3 24
3 25
4 25
4 26
5 26
5 27
6 27
6 28
7 28
7 29
8 29
8 30
9 30
9 31
10 31
10 32
11 32
11 33
12 33
12 34
13 34
13 35
14 35
14 36
15 36
15 37
16 37
16 38
17 38
17 39
18 39
18 40
19 40
19 41
20 41
      </DataArray>
      <DataArray type="Int32" Name="offsets" format="ascii">
2
4
6
8
10
12
14
16
18
20
22
24
26
28
30
32
34
36
38
40
42
44
46
48
50
52
54
56
58
60
62
64
66
68
70
72
74
76
78
80
82
84
86
88
90
92
94
96
98
100
102
104
106
108
110
112
114
116
118
120
122
124
126
128
130
132
134
136
138
140
142
144
146
148
150
152
154
156
158
160
162
      </DataArray>
      <DataArray type="UInt8" Name="types" format="ascii">
4
4
4
4
4
4
4
4
4
4
4
4
4
4
4
4
4
4
4
4
4
4
4
4
4
4
4
4
4
4
4
4
4
4
4
4
4
4
4
4
4
4
4
4
4
4
4
4
4
4
4
4
4
4
4
4
4
4
4
4
4
4
4
4
4
4
4
4
4
4
4
4
4
4
4
4
4
4
4
4
4
      </DataArray>
    </Cells>
    <PointData>
      <DataArray type="Float64" NumberOfComponents="3" Name="Displacement" format="ascii">
0 0 0
-5.56899e-05 -7.54546e-05 0
-0.000106091 -0.00026257 0
-0.000151537 -0.000550532 0
-0.000192083 -0.000929808 0
-0.000227682 -0.00138974 0
-0.000258685 -0.00191977 0
-0.000285129 -0.00251071 0
-0.000307622 -0.00315178 0
-0.000328057 -0.00383312 0
-0.00034741 -0.00455191 0
-0.000365679 -0.00530679 0
-0.000383412 -0.0060947 0
-0.000401069 -0.00691519 0
-0.000418782 -0.0077699 0
-0.000435856 -0.0086604 0
-0.000450843 -0.00958549 0
-0.000462759 -0.0105394 0
-0.000471392 -0.0115148 0
-0.00047663 -0.0125051 0
-0.000478286 -0.013502 0
0 0 0
6.21879e-05 -7.20591e-05 0
0.00011865 -0.00025939 0
0.000169602 -0.00054751 0
0.000215291 -0.000926891 0
0.000255729 -0.00138711 0
0.000290898 -0.00191746 0
0.000321245 -0.00250874 0
0.000346835 -0.00315067 0
0.000368198 -0.00383295 0
0.000387069 -0.00455214 0
0.00040433 -0.00530733 0
0.000420245 -0.00609564 0
0.000435788 -0.00691624 0
0.000451565 -0.0077707 0
0.000467298 -0.00866063 0
0.000481944 -0.00958521 0
0.00049416 -0.0105389 0
0.000503295 -0.0115144 0
0.000509133 -0.0125046 0
0.000511533 -0.0135037 0
      </DataArray> 
    </PointData>
    <CellData>
    </CellData>
  </Piece>
  </UnstructuredGrid>
</VTKFile>
