<?xml version="1.0"?>
<VTKFile type="UnstructuredGrid">
  <UnstructuredGrid>
  <Piece NumberOfPoints="42"  NumberOfCells="81">
    <Points>
      <DataArray type="Float64" NumberOfComponents="3" format="ascii">
0 0 0
0.299997 -4.48966e-06 0
0.599995 -1.49105e-05 0
0.899993 -3.10379e-05 0
1.19999 -5.04207e-05 0
1.49999 -7.16313e-05 0
1.79999 -9.44809e-05 0
2.09999 -0.000118597 0
2.39998 -0.000145069 0
2.69998 -0.000176161 0
2.99998 -0.000212641 0
3.29998 -0.000252193 0
3.59997 -0.000293865 0
3.89997 -0.000337943 0
4.19997 -0.000383503 0
4.49996 -0.000434092 0
4.79995 -0.000497233 0
5.09995 -0.000577081 0
5.39994 -0.000672406 0
5.69994 -0.000777836 0
5.99994 -0.000888228 0
0 0.3 0
0.300004 0.299996 0
0.600006 0.299985 0
0.900009 0.299969 0
1.20001 0.29995 0
1.50001 0.299928 0
1.80001 0.299905 0
2.10001 0.299881 0
2.40001 0.299855 0
2.70002 0.299824 0
3.00002 0.299788 0
3.30002 0.299748 0
3.60002 0.299706 0
3.90002 0.299662 0
4.20002 0.299616 0
4.50002 0.299565 0
4.80003 0.299502 0
5.10003 0.299424 0
5.40004 0.299329 0
5.70004 0.299224 0
6.00004 0.299112 0
      </DataArray>
    </Points>
    <Cells>
      <DataArray type="Int32" Name="connectivity" format="ascii">
0 1
1 2
2 3
3 4
4 5
5 6
6 7
7 8
8 9
9 10
10 11
11 12
12 13
13 14
14 15
15 16
16 17
17 18
18 19
19 20
21 22
22 23
23 24
24 25
25 26
26 27
27 28
28 29
29 30
30 31
31 32
32 33
33 34
34 35
35 36
36 37
37 38
38 39
39 40
40 41
0 21
0 22
1 22
1 23
2 23
2 24
3 24
3 25
4 25
4 26
5 26
5 27
6 27
6 28
7 28
7 29
8 29
8 30
9 30
9 31
10 31
10 32
11 32
11 33
12 33
12 34
13 34
13 35
14 35
14 36
15 36
15 37
16 37
16 38
17 38
17 39
18 39
18 40
19 40
19 41
20 41
      </DataArray>
      <DataArray type="Int32" Name="offsets" format="ascii">
2
4
6
8
10
12
14
16
18
20
22
24
26
28
30
32
34
36
38
40
42
44
46
48
50
52
54
56
58
60
62
64
66
68
70
72
74
76
78
80
82
84
86
88
90
92
94
96
98
100
102
104
106
108
110
112
114
116
118
120
122
124
126
128
130
132
134
136
138
140
142
144
146
148
150
152
154
156
158
160
162
      </DataArray>
      <DataArray type="UInt8" Name="types" format="ascii">
4
4
4
4
4
4
4
4
4
4
4
4
4
4
4
4
4
4
4
4
4
4
4
4
4
4
4
4
4
4
4
4
4
4
4
4
4
4
4
4
4
4
4
4
4
4
4
4
4
4
4
4
4
4
4
4
4
4
4
4
4
4
4
4
4
4
4
4
4
4
4
4
4
4
4
4
4
4
4
4
4
      </DataArray>
    </Cells>
    <PointData>
      <DataArray type="Float64" NumberOfComponents="3" Name="Displacement" format="ascii">
0 0 0
-2.86162e-06 -4.48966e-06 0
-5.4635e-06 -1.49105e-05 0
-7.42135e-06 -3.10379e-05 0
-8.85304e-06 -5.04207e-05 0
-1.01918e-05 -7.16313e-05 0
-1.15531e-05 -9.44809e-05 0
-1.33685e-05 -0.000118597 0
-1.58457e-05 -0.000145069 0
-1.86537e-05 -0.000176161 0
-2.11574e-05 -0.000212641 0
-2.34354e-05 -0.000252193 0
-2.56764e-05 -0.000293865 0
-2.82106e-05 -0.000337943 0
-3.2137e-05 -0.000383503 0
-3.82677e-05 -0.000434092 0
-4.56714e-05 -0.000497233 0
-5.26245e-05 -0.000577081 0
-5.76667e-05 -0.000672406 0
-6.06938e-05 -0.000777836 0
-6.05185e-05 -0.000888228 0
0 0 0
3.51872e-06 -4.25504e-06 0
6.48186e-06 -1.45535e-05 0
8.91926e-06 -3.0587e-05 0
1.06044e-05 -5.01359e-05 0
1.17529e-05 -7.15209e-05 0
1.27285e-05 -9.4572e-05 0
1.35268e-05 -0.000118936 0
1.4501e-05 -0.000145401 0
1.58204e-05 -0.000176187 0
1.71291e-05 -0.000212481 0
1.78793e-05 -0.000252128 0
1.84265e-05 -0.000293932 0
1.91756e-05 -0.000338347 0
2.02942e-05 -0.000384423 0
2.26505e-05 -0.000435034 0
2.71198e-05 -0.000497502 0
3.29914e-05 -0.000576479 0
3.85639e-05 -0.000671257 0
4.25551e-05 -0.000776208 0
4.49734e-05 -0.000887837 0
      </DataArray> 
    </PointData>
    <CellData>
    </CellData>
  </Piece>
  </UnstructuredGrid>
</VTKFile>
