<?xml version="1.0"?>
<VTKFile type="UnstructuredGrid">
  <UnstructuredGrid>
  <Piece NumberOfPoints="42"  NumberOfCells="81">
    <Points>
      <DataArray type="Float64" NumberOfComponents="3" format="ascii">
0 0 0
0.300002 3.29944e-06 0
0.600003 1.23497e-05 0
0.900003 2.59273e-05 0
1.2 4.10003e-05 0
1.5 5.4319e-05 0
1.79999 6.01453e-05 0
2.09998 5.40786e-05 0
2.39997 2.93532e-05 0
2.69995 -2.28297e-05 0
2.99993 -0.000109424 0
3.29991 -0.000234134 0
3.5999 -0.000397051 0
3.89988 -0.000597166 0
4.19986 -0.000836093 0
4.49984 -0.00111379 0
4.79983 -0.00142386 0
5.09982 -0.00175961 0
5.39981 -0.00211567 0
5.69981 -0.00248618 0
5.99981 -0.00286097 0
0 0.3 0
0.299997 0.300003 0
0.599995 0.300012 0
0.899993 0.300025 0
1.19999 0.30004 0
1.49999 0.300053 0
1.8 0.300058 0
2.1 0.300052 0
2.40001 0.300027 0
2.70003 0.299976 0
3.00004 0.29989 0
3.30006 0.299766 0
3.60008 0.299603 0
3.90009 0.299403 0
4.20011 0.299165 0
4.50013 0.298888 0
4.80014 0.298578 0
5.10016 0.298242 0
5.40017 0.297886 0
5.70017 0.297516 0
6.00018 0.297138 0
      </DataArray>
    </Points>
    <Cells>
      <DataArray type="Int32" Name="connectivity" format="ascii">
0 1
1 2
2 3
3 4
4 5
5 6
6 7
7 8
8 9
9 10
10 11
11 12
12 13
13 14
14 15
15 16
16 17
17 18
18 19
19 20
21 22
22 23
23 24
24 25
25 26
26 27
27 28
28 29
29 30
30 31
31 32
32 33
33 34
34 35
35 36
36 37
37 38
38 39
39 40
40 41
0 21
0 22
1 22
1 23
2 23
2 24
3 24
3 25
4 25
4 26
5 26
5 27
6 27
6 28
7 28
7 29
8 29
8 30
9 30
9 31
10 31
10 32
11 32
11 33
12 33
12 34
13 34
13 35
14 35
14 36
15 36
15 37
16 37
16 38
17 38
17 39
18 39
18 40
19 40
19 41
20 41
      </DataArray>
      <DataArray type="Int32" Name="offsets" format="ascii">
2
4
6
8
10
12
14
16
18
20
22
24
26
28
30
32
34
36
38
40
42
44
46
48
50
52
54
56
58
60
62
64
66
68
70
72
74
76
78
80
82
84
86
88
90
92
94
96
98
100
102
104
106
108
110
112
114
116
118
120
122
124
126
128
130
132
134
136
138
140
142
144
146
148
150
152
154
156
158
160
162
      </DataArray>
      <DataArray type="UInt8" Name="types" format="ascii">
4
4
4
4
4
4
4
4
4
4
4
4
4
4
4
4
4
4
4
4
4
4
4
4
4
4
4
4
4
4
4
4
4
4
4
4
4
4
4
4
4
4
4
4
4
4
4
4
4
4
4
4
4
4
4
4
4
4
4
4
4
4
4
4
4
4
4
4
4
4
4
4
4
4
4
4
4
4
4
4
4
      </DataArray>
    </Cells>
    <PointData>
      <DataArray type="Float64" NumberOfComponents="3" Name="Displacement" format="ascii">
0 0 0
2.04765e-06 3.29944e-06 0
3.43795e-06 1.23497e-05 0
3.38795e-06 2.59273e-05 0
1.49068e-06 4.10003e-05 0
-2.93051e-06 5.4319e-05 0
-9.83506e-06 6.01453e-05 0
-1.96057e-05 5.40786e-05 0
-3.2867e-05 2.93532e-05 0
-4.90639e-05 -2.28297e-05 0
-6.72149e-05 -0.000109424 0
-8.60351e-05 -0.000234134 0
-0.000104819 -0.000397051 0
-0.00012372 -0.000597166 0
-0.000142131 -0.000836093 0
-0.00015841 -0.00111379 0
-0.000171759 -0.00142386 0
-0.000182104 -0.00175961 0
-0.000189307 -0.00211567 0
-0.000192819 -0.00248618 0
-0.00019325 -0.00286097 0
0 0 0
-2.64644e-06 3.02605e-06 0
-5.07712e-06 1.16924e-05 0
-6.79513e-06 2.49491e-05 0
-7.18657e-06 3.96899e-05 0
-6.02058e-06 5.27421e-05 0
-2.48515e-06 5.83862e-05 0
3.69752e-06 5.20274e-05 0
1.30189e-05 2.7355e-05 0
2.58789e-05 -2.43055e-05 0
4.14418e-05 -0.000110198 0
5.87318e-05 -0.000234304 0
7.66853e-05 -0.000397015 0
9.46899e-05 -0.000596951 0
0.000112703 -0.000835221 0
0.000129901 -0.00111232 0
0.000144795 -0.00142225 0
0.000156977 -0.00175797 0
0.000166486 -0.00211389 0
0.000173029 -0.00248445 0
0.000176015 -0.00286177 0
      </DataArray> 
    </PointData>
    <CellData>
    </CellData>
  </Piece>
  </UnstructuredGrid>
</VTKFile>
