<?xml version="1.0"?>
<VTKFile type="UnstructuredGrid">
  <UnstructuredGrid>
  <Piece NumberOfPoints="42"  NumberOfCells="81">
    <Points>
      <DataArray type="Float64" NumberOfComponents="3" format="ascii">
0 0 0
0.300007 1.28704e-05 0
0.600013 3.96596e-05 0
0.900018 7.70138e-05 0
1.20002 0.000124321 0
1.50002 0.000180007 0
1.80002 0.000240141 0
2.10002 0.00030107 0
2.40002 0.000359465 0
2.70001 0.000407619 0
3 0.000435693 0
3.29998 0.000437961 0
3.59997 0.000412287 0
3.89995 0.000356948 0
4.19994 0.000269787 0
4.49993 0.000151924 0
4.79992 7.12517e-06 0
5.09991 -0.000159996 0
5.3999 -0.000343334 0
5.6999 -0.000536564 0
5.9999 -0.000735184 0
0 0.3 0
0.299991 0.300012 0
0.599984 0.300039 0
0.899979 0.300076 0
1.19997 0.300123 0
1.49997 0.300179 0
1.79997 0.300239 0
2.09997 0.300299 0
2.39997 0.300357 0
2.69998 0.300406 0
2.99999 0.300434 0
3.3 0.300437 0
3.60001 0.300412 0
3.90002 0.300357 0
4.20004 0.30027 0
4.50005 0.300153 0
4.80007 0.300009 0
5.10008 0.299842 0
5.40008 0.299658 0
5.70009 0.299465 0
6.00009 0.299265 0
      </DataArray>
    </Points>
    <Cells>
      <DataArray type="Int32" Name="connectivity" format="ascii">
0 1
1 2
2 3
3 4
4 5
5 6
6 7
7 8
8 9
9 10
10 11
11 12
12 13
13 14
14 15
15 16
16 17
17 18
18 19
19 20
21 22
22 23
23 24
24 25
25 26
26 27
27 28
28 29
29 30
30 31
31 32
32 33
33 34
34 35
35 36
36 37
37 38
38 39
39 40
40 41
0 21
0 22
1 22
1 23
2 23
2 24
3 24
3 25
4 25
4 26
5 26
5 27
6 27
6 28
7 28
7 29
8 29
8 30
9 30
9 31
10 31
10 32
11 32
11 33
12 33
12 34
13 34
13 35
14 35
14 36
15 36
15 37
16 37
16 38
17 38
17 39
18 39
18 40
19 40
19 41
20 41
      </DataArray>
      <DataArray type="Int32" Name="offsets" format="ascii">
2
4
6
8
10
12
14
16
18
20
22
24
26
28
30
32
34
36
38
40
42
44
46
48
50
52
54
56
58
60
62
64
66
68
70
72
74
76
78
80
82
84
86
88
90
92
94
96
98
100
102
104
106
108
110
112
114
116
118
120
122
124
126
128
130
132
134
136
138
140
142
144
146
148
150
152
154
156
158
160
162
      </DataArray>
      <DataArray type="UInt8" Name="types" format="ascii">
4
4
4
4
4
4
4
4
4
4
4
4
4
4
4
4
4
4
4
4
4
4
4
4
4
4
4
4
4
4
4
4
4
4
4
4
4
4
4
4
4
4
4
4
4
4
4
4
4
4
4
4
4
4
4
4
4
4
4
4
4
4
4
4
4
4
4
4
4
4
4
4
4
4
4
4
4
4
4
4
4
      </DataArray>
    </Cells>
    <PointData>
      <DataArray type="Float64" NumberOfComponents="3" Name="Displacement" format="ascii">
0 0 0
7.42461e-06 1.28704e-05 0
1.3327e-05 3.96596e-05 0
1.82896e-05 7.70138e-05 0
2.21432e-05 0.000124321 0
2.42731e-05 0.000180007 0
2.43169e-05 0.000240141 0
2.1971e-05 0.00030107 0
1.64742e-05 0.000359465 0
7.31019e-06 0.000407619 0
-4.43987e-06 0.000435693 0
-1.76828e-05 0.000437961 0
-3.18846e-05 0.000412287 0
-4.66499e-05 0.000356948 0
-6.10087e-05 0.000269787 0
-7.38598e-05 0.000151924 0
-8.44628e-05 7.12517e-06 0
-9.24265e-05 -0.000159996 0
-9.76267e-05 -0.000343334 0
-0.000100825 -0.000536564 0
-0.000100696 -0.000735184 0
0 0 0
-8.72551e-06 1.18225e-05 0
-1.56922e-05 3.87766e-05 0
-2.11919e-05 7.62073e-05 0
-2.57412e-05 0.000123328 0
-2.91314e-05 0.000178789 0
-3.09019e-05 0.000238759 0
-3.0901e-05 0.000299382 0
-2.88482e-05 0.000357404 0
-2.37881e-05 0.000405732 0
-1.49864e-05 0.000434464 0
-3.40017e-06 0.000437263 0
9.87201e-06 0.0004119 0
2.41853e-05 0.000356962 0
3.89885e-05 0.000270368 0
5.32046e-05 0.000152985 0
6.58107e-05 8.53318e-06 0
7.63038e-05 -0.000158335 0
8.42174e-05 -0.000341706 0
8.92936e-05 -0.000534739 0
9.22435e-05 -0.000734738 0
      </DataArray> 
    </PointData>
    <CellData>
    </CellData>
  </Piece>
  </UnstructuredGrid>
</VTKFile>
