<?xml version="1.0"?>
<VTKFile type="UnstructuredGrid">
  <UnstructuredGrid>
  <Piece NumberOfPoints="36"  NumberOfCells="69">
    <Points>
      <DataArray type="Float64" NumberOfComponents="3" format="ascii">
0 0 0
-0.00131214 0.999749 0
-0.00326451 1.99972 0
-0.0047298 2.99992 0
-0.00458138 4.00034 0
-0.0015585 5.00098 0
0.00729917 6.00094 0
0.40729 5.99821 0
3.40784 5.96187 0
6.40626 5.93248 0
9.40261 5.93217 0
12.3988 5.96092 0
15.3971 5.99756 0
15.7972 6.00039 0
15.8056 4.99979 0
15.8076 3.99938 0
15.8069 2.9992 0
15.8046 1.99924 0
15.8019 0.999509 0
15.8 0 0
15.4 0 0
15.402 1.00002 0
15.4046 1.99981 0
15.4069 2.99938 0
15.4076 3.99872 0
15.4057 4.99784 0
12.4069 4.9612 0
9.40588 4.93243 0
6.4025 4.9325 0
3.39927 4.96166 0
0.398331 4.9989 0
0.395453 3.99957 0
0.395306 3.00001 0
0.396771 2.00023 0
0.398723 1.00023 0
0.4 0 0
      </DataArray>
    </Points>
    <Cells>
      <DataArray type="Int32" Name="connectivity" format="ascii">
0 1
1 2
2 3
3 4
4 5
5 6
6 7
7 8
8 9
9 10
10 11
11 12
12 13
13 14
14 15
15 16
16 17
17 18
18 19
19 20
20 21
21 22
22 23
23 24
24 25
25 26
26 27
27 28
28 29
29 30
30 31
31 32
32 33
33 34
34 35
0 35
0 34
1 34
1 33
2 33
2 32
3 32
3 31
4 31
4 30
5 30
5 7
30 7
30 8
29 8
29 9
28 9
28 10
27 10
27 11
26 11
26 12
25 12
25 13
25 14
24 14
24 15
23 15
23 16
22 16
22 17
21 17
21 18
20 18
      </DataArray>
      <DataArray type="Int32" Name="offsets" format="ascii">
2
4
6
8
10
12
14
16
18
20
22
24
26
28
30
32
34
36
38
40
42
44
46
48
50
52
54
56
58
60
62
64
66
68
70
72
74
76
78
80
82
84
86
88
90
92
94
96
98
100
102
104
106
108
110
112
114
116
118
120
122
124
126
128
130
132
134
136
138
      </DataArray>
      <DataArray type="UInt8" Name="types" format="ascii">
4
4
4
4
4
4
4
4
4
4
4
4
4
4
4
4
4
4
4
4
4
4
4
4
4
4
4
4
4
4
4
4
4
4
4
4
4
4
4
4
4
4
4
4
4
4
4
4
4
4
4
4
4
4
4
4
4
4
4
4
4
4
4
4
4
4
4
4
4
      </DataArray>
    </Cells>
    <PointData>
      <DataArray type="Float64" NumberOfComponents="3" Name="Displacement" format="ascii">
0 0 0
-0.00131214 -0.000250788 0
-0.00326451 -0.000277617 0
-0.0047298 -7.91085e-05 0
-0.00458138 0.000343783 0
-0.0015585 0.000983802 0
0.00729917 0.000944572 0
0.00728981 -0.0017919 0
0.00784399 -0.0381339 0
0.00626397 -0.0675205 0
0.00261024 -0.0678339 0
-0.00118229 -0.0390795 0
-0.00285178 -0.00243947 0
-0.00276061 0.000389163 0
0.00563536 -0.00020747 0
0.00758371 -0.000615396 0
0.00686478 -0.000801111 0
0.00460288 -0.000759535 0
0.00192627 -0.000491489 0
0 0 0
0 0 0
0.00196266 1.87496e-05 0
0.00463935 -0.00018955 0
0.00690096 -0.000622167 0
0.00762057 -0.00127709 0
0.00567735 -0.00215682 0
0.00692306 -0.0388006 0
0.00587965 -0.067573 0
0.00250362 -0.0675029 0
-0.000727706 -0.0383412 0
-0.0016688 -0.00110413 0
-0.00454708 -0.000431669 0
-0.00469416 1.25581e-05 0
-0.00322889 0.000232967 0
-0.00127651 0.000229231 0
0 0 0
      </DataArray> 
      <DataArray type="Float64" NumberOfComponents="3" Name="Velocity" format="ascii">
0 0 0
0 0 0
0 0 0
0 0 0
0 0 0
0 0 0
0 0 0
0 0 0
0 0 0
0 0 0
0 0 0
0 0 0
0 0 0
0 0 0
0 0 0
0 0 0
0 0 0
0 0 0
0 0 0
0 0 0
0 0 0
0 0 0
0 0 0
0 0 0
0 0 0
0 0 0
0 0 0
0 0 0
0 0 0
0 0 0
0 0 0
0 0 0
0 0 0
0 0 0
0 0 0
0 0 0
      </DataArray> 
      <DataArray type="Float64" NumberOfComponents="3" Name="Acceleration" format="ascii">
0 0 0
0 0 0
0 0 0
0 0 0
0 0 0
0 0 0
0 0 0
0 0 0
0 0 0
0 0 0
0 0 0
0 0 0
0 0 0
0 0 0
0 0 0
0 0 0
0 0 0
0 0 0
0 0 0
0 0 0
0 0 0
0 0 0
0 0 0
0 0 0
0 0 0
0 0 0
0 0 0
0 0 0
0 0 0
0 0 0
0 0 0
0 0 0
0 0 0
0 0 0
0 0 0
0 0 0
      </DataArray> 
    </PointData>
    <CellData>
    </CellData>
  </Piece>
  </UnstructuredGrid>
</VTKFile>
