<?xml version="1.0"?>
<VTKFile type="UnstructuredGrid">
  <UnstructuredGrid>
  <Piece NumberOfPoints="36"  NumberOfCells="69">
    <Points>
      <DataArray type="Float64" NumberOfComponents="3" format="ascii">
0 0 0
-0.00935363 0.998891 0
-0.0228095 1.99846 0
-0.0367473 2.99874 0
-0.0475351 3.99978 0
-0.0508066 5.0156 0
0.0511681 6.01038 0
0.450804 5.99333 0
3.43491 5.66453 0
6.41548 5.34707 0
9.4076 5.29763 0
12.3808 5.63807 0
15.3573 5.9917 0
15.7569 6.01698 0
15.8252 4.99987 0
15.8299 3.99777 0
15.8248 2.99724 0
15.8157 1.99745 0
15.8062 0.998378 0
15.8 0 0
15.4 0 0
15.4063 1.00036 0
15.4159 1.99997 0
15.425 2.99888 0
15.43 3.99709 0
15.4254 4.9946 0
12.4495 4.64097 0
9.46709 4.30023 0
6.39143 4.34755 0
3.3321 4.66931 0
0.348539 5.00045 0
0.352569 4.00205 0
0.363344 3.00299 0
0.377277 2.00324 0
0.390741 1.00276 0
0.4 0 0
      </DataArray>
    </Points>
    <Cells>
      <DataArray type="Int32" Name="connectivity" format="ascii">
0 1
1 2
2 3
3 4
4 5
5 6
6 7
7 8
8 9
9 10
10 11
11 12
12 13
13 14
14 15
15 16
16 17
17 18
18 19
19 20
20 21
21 22
22 23
23 24
24 25
25 26
26 27
27 28
28 29
29 30
30 31
31 32
32 33
33 34
34 35
0 35
0 34
1 34
1 33
2 33
2 32
3 32
3 31
4 31
4 30
5 30
5 7
30 7
30 8
29 8
29 9
28 9
28 10
27 10
27 11
26 11
26 12
25 12
25 13
25 14
24 14
24 15
23 15
23 16
22 16
22 17
21 17
21 18
20 18
      </DataArray>
      <DataArray type="Int32" Name="offsets" format="ascii">
2
4
6
8
10
12
14
16
18
20
22
24
26
28
30
32
34
36
38
40
42
44
46
48
50
52
54
56
58
60
62
64
66
68
70
72
74
76
78
80
82
84
86
88
90
92
94
96
98
100
102
104
106
108
110
112
114
116
118
120
122
124
126
128
130
132
134
136
138
      </DataArray>
      <DataArray type="UInt8" Name="types" format="ascii">
4
4
4
4
4
4
4
4
4
4
4
4
4
4
4
4
4
4
4
4
4
4
4
4
4
4
4
4
4
4
4
4
4
4
4
4
4
4
4
4
4
4
4
4
4
4
4
4
4
4
4
4
4
4
4
4
4
4
4
4
4
4
4
4
4
4
4
4
4
      </DataArray>
    </Cells>
    <PointData>
      <DataArray type="Float64" NumberOfComponents="3" Name="Displacement" format="ascii">
0 0 0
-0.00935363 -0.00110894 0
-0.0228095 -0.00154151 0
-0.0367473 -0.00125897 0
-0.0475351 -0.000221743 0
-0.0508066 0.0155957 0
0.0511681 0.0103827 0
0.0508043 -0.00667191 0
0.0349141 -0.335469 0
0.0154836 -0.652934 0
0.0075981 -0.702366 0
-0.019218 -0.361934 0
-0.04266 -0.00830069 0
-0.043147 0.0169844 0
0.0252281 -0.000125981 0
0.0299194 -0.00223124 0
0.0248431 -0.00276465 0
0.0157468 -0.00255422 0
0.0062286 -0.0016219 0
0 0 0
0 0 0
0.00634872 0.000357594 0
0.0158695 -2.63586e-05 0
0.024962 -0.00112423 0
0.0300387 -0.00290847 0
0.0254236 -0.00539573 0
0.049455 -0.359029 0
0.0670928 -0.699768 0
-0.00856619 -0.652449 0
-0.0679029 -0.330694 0
-0.051461 0.000449596 0
-0.047431 0.00205499 0
-0.0366555 0.00298899 0
-0.0227226 0.00323878 0
-0.00925872 0.00276156 0
0 0 0
      </DataArray> 
      <DataArray type="Float64" NumberOfComponents="3" Name="Velocity" format="ascii">
0 0 0
0 0 0
0 0 0
0 0 0
0 0 0
0 0 0
0 0 0
0 0 0
0 0 0
0 0 0
0 0 0
0 0 0
0 0 0
0 0 0
0 0 0
0 0 0
0 0 0
0 0 0
0 0 0
0 0 0
0 0 0
0 0 0
0 0 0
0 0 0
0 0 0
0 0 0
0 0 0
0 0 0
0 0 0
0 0 0
0 0 0
0 0 0
0 0 0
0 0 0
0 0 0
0 0 0
      </DataArray> 
      <DataArray type="Float64" NumberOfComponents="3" Name="Acceleration" format="ascii">
0 0 0
0 0 0
0 0 0
0 0 0
0 0 0
0 0 0
0 0 0
0 0 0
0 0 0
0 0 0
0 0 0
0 0 0
0 0 0
0 0 0
0 0 0
0 0 0
0 0 0
0 0 0
0 0 0
0 0 0
0 0 0
0 0 0
0 0 0
0 0 0
0 0 0
0 0 0
0 0 0
0 0 0
0 0 0
0 0 0
0 0 0
0 0 0
0 0 0
0 0 0
0 0 0
0 0 0
      </DataArray> 
    </PointData>
    <CellData>
    </CellData>
  </Piece>
  </UnstructuredGrid>
</VTKFile>
