<?xml version="1.0"?>
<VTKFile type="UnstructuredGrid">
  <UnstructuredGrid>
  <Piece NumberOfPoints="36"  NumberOfCells="69">
    <Points>
      <DataArray type="Float64" NumberOfComponents="3" format="ascii">
0 0 0
-0.00365784 0.999308 0
-0.00987102 1.9991 0
-0.0161759 2.99937 0
-0.0201042 4.00015 0
-0.0188985 5.00266 0
0.00822348 6.00229 0
0.408195 5.99749 0
3.40816 5.90074 0
6.40512 5.81095 0
9.40017 5.8112 0
12.394 5.89926 0
15.3908 5.99543 0
15.7909 6.00435 0
15.8166 4.99952 0
15.8191 3.99863 0
15.8163 2.99823 0
15.8105 1.99833 0
15.8042 0.998924 0
15.8 0 0
15.4 0 0
15.4043 1.00021 0
15.4105 1.99992 0
15.4163 2.99914 0
15.4192 3.99788 0
15.4167 4.99613 0
12.4204 4.89998 0
9.42068 4.81181 0
6.4002 4.81101 0
3.3804 4.90077 0
0.380869 4.99915 0
0.379972 4.00029 0
0.383899 3.00095 0
0.390202 2.00113 0
0.396417 1.00082 0
0.4 0 0
      </DataArray>
    </Points>
    <Cells>
      <DataArray type="Int32" Name="connectivity" format="ascii">
0 1
1 2
2 3
3 4
4 5
5 6
6 7
7 8
8 9
9 10
10 11
11 12
12 13
13 14
14 15
15 16
16 17
17 18
18 19
19 20
20 21
21 22
22 23
23 24
24 25
25 26
26 27
27 28
28 29
29 30
30 31
31 32
32 33
33 34
34 35
0 35
0 34
1 34
1 33
2 33
2 32
3 32
3 31
4 31
4 30
5 30
5 7
30 7
30 8
29 8
29 9
28 9
28 10
27 10
27 11
26 11
26 12
25 12
25 13
25 14
24 14
24 15
23 15
23 16
22 16
22 17
21 17
21 18
20 18
      </DataArray>
      <DataArray type="Int32" Name="offsets" format="ascii">
2
4
6
8
10
12
14
16
18
20
22
24
26
28
30
32
34
36
38
40
42
44
46
48
50
52
54
56
58
60
62
64
66
68
70
72
74
76
78
80
82
84
86
88
90
92
94
96
98
100
102
104
106
108
110
112
114
116
118
120
122
124
126
128
130
132
134
136
138
      </DataArray>
      <DataArray type="UInt8" Name="types" format="ascii">
4
4
4
4
4
4
4
4
4
4
4
4
4
4
4
4
4
4
4
4
4
4
4
4
4
4
4
4
4
4
4
4
4
4
4
4
4
4
4
4
4
4
4
4
4
4
4
4
4
4
4
4
4
4
4
4
4
4
4
4
4
4
4
4
4
4
4
4
4
      </DataArray>
    </Cells>
    <PointData>
      <DataArray type="Float64" NumberOfComponents="3" Name="Displacement" format="ascii">
0 0 0
-0.00365784 -0.000692152 0
-0.00987102 -0.000904838 0
-0.0161759 -0.000626896 0
-0.0201042 0.000151365 0
-0.0188985 0.00265774 0
0.00822348 0.00228988 0
0.00819472 -0.00250688 0
0.00816157 -0.0992627 0
0.00511959 -0.189047 0
0.000166438 -0.188805 0
-0.00603358 -0.10074 0
-0.00919762 -0.00457346 0
-0.00907691 0.00435206 0
0.0165897 -0.000480432 0
0.0191186 -0.00137057 0
0.0162581 -0.00177282 0
0.0104626 -0.00167179 0
0.00419569 -0.00107594 0
0 0 0
0 0 0
0.0042766 0.000209315 0
0.0105444 -8.32367e-05 0
0.0163382 -0.000864846 0
0.0191994 -0.00212401 0
0.0166942 -0.00386864 0
0.0204475 -0.100024 0
0.0206777 -0.188189 0
0.000198516 -0.188989 0
-0.0196026 -0.0992334 0
-0.0191311 -0.000846015 0
-0.0200281 0.000294894 0
-0.016101 0.000952149 0
-0.0097976 0.00112947 0
-0.00358279 0.000815188 0
0 0 0
      </DataArray> 
      <DataArray type="Float64" NumberOfComponents="3" Name="Velocity" format="ascii">
0 0 0
0 0 0
0 0 0
0 0 0
0 0 0
0 0 0
0 0 0
0 0 0
0 0 0
0 0 0
0 0 0
0 0 0
0 0 0
0 0 0
0 0 0
0 0 0
0 0 0
0 0 0
0 0 0
0 0 0
0 0 0
0 0 0
0 0 0
0 0 0
0 0 0
0 0 0
0 0 0
0 0 0
0 0 0
0 0 0
0 0 0
0 0 0
0 0 0
0 0 0
0 0 0
0 0 0
      </DataArray> 
      <DataArray type="Float64" NumberOfComponents="3" Name="Acceleration" format="ascii">
0 0 0
0 0 0
0 0 0
0 0 0
0 0 0
0 0 0
0 0 0
0 0 0
0 0 0
0 0 0
0 0 0
0 0 0
0 0 0
0 0 0
0 0 0
0 0 0
0 0 0
0 0 0
0 0 0
0 0 0
0 0 0
0 0 0
0 0 0
0 0 0
0 0 0
0 0 0
0 0 0
0 0 0
0 0 0
0 0 0
0 0 0
0 0 0
0 0 0
0 0 0
0 0 0
0 0 0
      </DataArray> 
    </PointData>
    <CellData>
    </CellData>
  </Piece>
  </UnstructuredGrid>
</VTKFile>
