<?xml version="1.0"?>
<VTKFile type="UnstructuredGrid">
  <UnstructuredGrid>
  <Piece NumberOfPoints="36"  NumberOfCells="69">
    <Points>
      <DataArray type="Float64" NumberOfComponents="3" format="ascii">
0 0 0
-0.00185984 0.99967 0
-0.00465213 1.99964 0
-0.00685485 2.99992 0
-0.00694655 4.0005 0
-0.00322419 5.00137 0
0.00843808 6.0013 0
0.408422 5.99773 0
3.40911 5.95093 0
6.40732 5.91111 0
9.4032 5.91059 0
12.3988 5.94966 0
15.3969 5.99691 0
15.797 6.00057 0
15.8081 4.99976 0
15.8105 3.9992 0
15.8094 2.99894 0
15.8062 1.99899 0
15.8026 0.999346 0
15.8 0 0
15.4 0 0
15.4026 1.00006 0
15.4063 1.99981 0
15.4094 2.99926 0
15.4106 3.99841 0
15.4082 4.99726 0
12.4099 4.95 0
9.40899 4.91091 0
6.40302 4.91113 0
3.39741 4.95072 0
0.396623 4.99869 0
0.393099 3.99956 0
0.393193 3.00012 0
0.395396 2.00038 0
0.398188 1.00034 0
0.4 0 0
      </DataArray>
    </Points>
    <Cells>
      <DataArray type="Int32" Name="connectivity" format="ascii">
0 1
1 2
2 3
3 4
4 5
5 6
6 7
7 8
8 9
9 10
10 11
11 12
12 13
13 14
14 15
15 16
16 17
17 18
18 19
19 20
20 21
21 22
22 23
23 24
24 25
25 26
26 27
27 28
28 29
29 30
30 31
31 32
32 33
33 34
34 35
0 35
0 34
1 34
1 33
2 33
2 32
3 32
3 31
4 31
4 30
5 30
5 7
30 7
30 8
29 8
29 9
28 9
28 10
27 10
27 11
26 11
26 12
25 12
25 13
25 14
24 14
24 15
23 15
23 16
22 16
22 17
21 17
21 18
20 18
      </DataArray>
      <DataArray type="Int32" Name="offsets" format="ascii">
2
4
6
8
10
12
14
16
18
20
22
24
26
28
30
32
34
36
38
40
42
44
46
48
50
52
54
56
58
60
62
64
66
68
70
72
74
76
78
80
82
84
86
88
90
92
94
96
98
100
102
104
106
108
110
112
114
116
118
120
122
124
126
128
130
132
134
136
138
      </DataArray>
      <DataArray type="UInt8" Name="types" format="ascii">
4
4
4
4
4
4
4
4
4
4
4
4
4
4
4
4
4
4
4
4
4
4
4
4
4
4
4
4
4
4
4
4
4
4
4
4
4
4
4
4
4
4
4
4
4
4
4
4
4
4
4
4
4
4
4
4
4
4
4
4
4
4
4
4
4
4
4
4
4
      </DataArray>
    </Cells>
    <PointData>
      <DataArray type="Float64" NumberOfComponents="3" Name="Displacement" format="ascii">
0 0 0
-0.00185984 -0.000330163 0
-0.00465213 -0.000358786 0
-0.00685485 -8.30132e-05 0
-0.00694655 0.000496241 0
-0.00322419 0.00136712 0
0.00843808 0.00129912 0
0.00842218 -0.00226673 0
0.00911199 -0.0490671 0
0.00731962 -0.0888934 0
0.00319761 -0.0894083 0
-0.0011782 -0.0503443 0
-0.00309053 -0.0030931 0
-0.00296926 0.000565105 0
0.008102 -0.000235333 0
0.0105084 -0.000795167 0
0.0093766 -0.00105546 0
0.00622412 -0.00100782 0
0.00257429 -0.000654179 0
0 0 0
0 0 0
0.00262363 5.93514e-05 0
0.00627363 -0.000188708 0
0.00942556 -0.000739282 0
0.0105584 -0.00158867 0
0.00816083 -0.00274128 0
0.00992194 -0.0499954 0
0.00899088 -0.0890891 0
0.0030224 -0.0888683 0
-0.00258607 -0.0492839 0
-0.00337681 -0.0013138 0
-0.00690065 -0.000441587 0
-0.00680688 0.000121975 0
-0.00460432 0.000384384 0
-0.00181197 0.000344639 0
0 0 0
      </DataArray> 
      <DataArray type="Float64" NumberOfComponents="3" Name="Velocity" format="ascii">
0 0 0
0 0 0
0 0 0
0 0 0
0 0 0
0 0 0
0 0 0
0 0 0
0 0 0
0 0 0
0 0 0
0 0 0
0 0 0
0 0 0
0 0 0
0 0 0
0 0 0
0 0 0
0 0 0
0 0 0
0 0 0
0 0 0
0 0 0
0 0 0
0 0 0
0 0 0
0 0 0
0 0 0
0 0 0
0 0 0
0 0 0
0 0 0
0 0 0
0 0 0
0 0 0
0 0 0
      </DataArray> 
      <DataArray type="Float64" NumberOfComponents="3" Name="Acceleration" format="ascii">
0 0 0
0 0 0
0 0 0
0 0 0
0 0 0
0 0 0
0 0 0
0 0 0
0 0 0
0 0 0
0 0 0
0 0 0
0 0 0
0 0 0
0 0 0
0 0 0
0 0 0
0 0 0
0 0 0
0 0 0
0 0 0
0 0 0
0 0 0
0 0 0
0 0 0
0 0 0
0 0 0
0 0 0
0 0 0
0 0 0
0 0 0
0 0 0
0 0 0
0 0 0
0 0 0
0 0 0
      </DataArray> 
    </PointData>
    <CellData>
    </CellData>
  </Piece>
  </UnstructuredGrid>
</VTKFile>
