<?xml version="1.0"?>
<VTKFile type="UnstructuredGrid">
  <UnstructuredGrid>
  <Piece NumberOfPoints="36"  NumberOfCells="69">
    <Points>
      <DataArray type="Float64" NumberOfComponents="3" format="ascii">
0 0 0
-0.00893067 0.9989 0
-0.0219662 1.99847 0
-0.035551 2.99873 0
-0.0461177 3.99974 0
-0.0494184 5.01446 0
0.04596 6.0099 0
0.445644 5.994 0
3.43188 5.68563 0
6.41459 5.38818 0
9.40699 5.34338 0
12.3829 5.66136 0
15.3622 5.99209 0
15.7617 6.0159 0
15.8263 4.99934 0
15.8295 3.9978 0
15.8245 2.99728 0
15.8155 1.99749 0
15.8061 0.998405 0
15.8 0 0
15.4 0 0
15.4062 1.00036 0
15.4156 1.99998 0
15.4246 2.99891 0
15.4296 3.99716 0
15.4265 4.99472 0
12.4479 4.66401 0
9.46309 4.34574 0
6.39229 4.38861 0
3.33567 4.68975 0
0.349981 5.00042 0
0.353985 4.00198 0
0.36454 3.00288 0
0.37812 2.0031 0
0.391164 1.00261 0
0.4 0 0
      </DataArray>
    </Points>
    <Cells>
      <DataArray type="Int32" Name="connectivity" format="ascii">
0 1
1 2
2 3
3 4
4 5
5 6
6 7
7 8
8 9
9 10
10 11
11 12
12 13
13 14
14 15
15 16
16 17
17 18
18 19
19 20
20 21
21 22
22 23
23 24
24 25
25 26
26 27
27 28
28 29
29 30
30 31
31 32
32 33
33 34
34 35
0 35
0 34
1 34
1 33
2 33
2 32
3 32
3 31
4 31
4 30
5 30
5 7
30 7
30 8
29 8
29 9
28 9
28 10
27 10
27 11
26 11
26 12
25 12
25 13
25 14
24 14
24 15
23 15
23 16
22 16
22 17
21 17
21 18
20 18
      </DataArray>
      <DataArray type="Int32" Name="offsets" format="ascii">
2
4
6
8
10
12
14
16
18
20
22
24
26
28
30
32
34
36
38
40
42
44
46
48
50
52
54
56
58
60
62
64
66
68
70
72
74
76
78
80
82
84
86
88
90
92
94
96
98
100
102
104
106
108
110
112
114
116
118
120
122
124
126
128
130
132
134
136
138
      </DataArray>
      <DataArray type="UInt8" Name="types" format="ascii">
4
4
4
4
4
4
4
4
4
4
4
4
4
4
4
4
4
4
4
4
4
4
4
4
4
4
4
4
4
4
4
4
4
4
4
4
4
4
4
4
4
4
4
4
4
4
4
4
4
4
4
4
4
4
4
4
4
4
4
4
4
4
4
4
4
4
4
4
4
      </DataArray>
    </Cells>
    <PointData>
      <DataArray type="Float64" NumberOfComponents="3" Name="Displacement" format="ascii">
0 0 0
-0.00893067 -0.00109979 0
-0.0219662 -0.00153432 0
-0.035551 -0.00126714 0
-0.0461177 -0.000260125 0
-0.0494184 0.0144602 0
0.04596 0.0099013 0
0.045644 -0.00599686 0
0.031879 -0.314374 0
0.0145866 -0.611816 0
0.0069884 -0.656619 0
-0.0171269 -0.338636 0
-0.0378488 -0.00791491 0
-0.0382506 0.0158988 0
0.0263179 -0.000664383 0
0.0295057 -0.00219709 0
0.0244696 -0.00271993 0
0.0154975 -0.00251214 0
0.00612517 -0.00159509 0
0 0 0
0 0 0
0.00624316 0.000356129 0
0.015618 -1.62312e-05 0
0.0245865 -0.0010904 0
0.0296222 -0.00283962 0
0.0265012 -0.0052758 0
0.0478525 -0.335993 0
0.0630892 -0.65426 0
-0.00770659 -0.611387 0
-0.0643311 -0.310246 0
-0.0500186 0.000416748 0
-0.0460152 0.00197716 0
-0.03546 0.00287656 0
-0.0218797 0.00310207 0
-0.0088363 0.00261267 0
0 0 0
      </DataArray> 
      <DataArray type="Float64" NumberOfComponents="3" Name="Velocity" format="ascii">
0 0 0
0 0 0
0 0 0
0 0 0
0 0 0
0 0 0
0 0 0
0 0 0
0 0 0
0 0 0
0 0 0
0 0 0
0 0 0
0 0 0
0 0 0
0 0 0
0 0 0
0 0 0
0 0 0
0 0 0
0 0 0
0 0 0
0 0 0
0 0 0
0 0 0
0 0 0
0 0 0
0 0 0
0 0 0
0 0 0
0 0 0
0 0 0
0 0 0
0 0 0
0 0 0
0 0 0
      </DataArray> 
      <DataArray type="Float64" NumberOfComponents="3" Name="Acceleration" format="ascii">
0 0 0
0 0 0
0 0 0
0 0 0
0 0 0
0 0 0
0 0 0
0 0 0
0 0 0
0 0 0
0 0 0
0 0 0
0 0 0
0 0 0
0 0 0
0 0 0
0 0 0
0 0 0
0 0 0
0 0 0
0 0 0
0 0 0
0 0 0
0 0 0
0 0 0
0 0 0
0 0 0
0 0 0
0 0 0
0 0 0
0 0 0
0 0 0
0 0 0
0 0 0
0 0 0
0 0 0
      </DataArray> 
    </PointData>
    <CellData>
    </CellData>
  </Piece>
  </UnstructuredGrid>
</VTKFile>
