<?xml version="1.0"?>
<VTKFile type="UnstructuredGrid">
  <UnstructuredGrid>
  <Piece NumberOfPoints="36"  NumberOfCells="69">
    <Points>
      <DataArray type="Float64" NumberOfComponents="3" format="ascii">
0 0 0
-0.00501325 0.998991 0
-0.0139941 1.99858 0
-0.0238358 2.99877 0
-0.0314208 3.99961 0
-0.0332114 5.00723 0
0.0213839 6.00574 0
0.421281 5.99668 0
3.41752 5.81459 0
6.41045 5.64109 0
9.40445 5.62577 0
12.3932 5.80498 0
15.3853 5.99436 0
15.7852 6.0097 0
15.8277 4.99887 0
15.8284 3.99784 0
15.8229 2.99744 0
15.8142 1.99768 0
15.8055 0.998543 0
15.8 0 0
15.4 0 0
15.4056 1.00039 0
15.4143 2.00013 0
15.423 2.99926 0
15.4285 3.99779 0
15.4279 4.99572 0
12.4365 4.80635 0
9.44059 4.62697 0
6.3993 4.64125 0
3.36219 4.81569 0
0.366447 4.99969 0
0.368673 4.00097 0
0.376253 3.00165 0
0.386093 2.00173 0
0.395078 1.00119 0
0.4 0 0
      </DataArray>
    </Points>
    <Cells>
      <DataArray type="Int32" Name="connectivity" format="ascii">
0 1
1 2
2 3
3 4
4 5
5 6
6 7
7 8
8 9
9 10
10 11
11 12
12 13
13 14
14 15
15 16
16 17
17 18
18 19
19 20
20 21
21 22
22 23
23 24
24 25
25 26
26 27
27 28
28 29
29 30
30 31
31 32
32 33
33 34
34 35
0 35
0 34
1 34
1 33
2 33
2 32
3 32
3 31
4 31
4 30
5 30
5 7
30 7
30 8
29 8
29 9
28 9
28 10
27 10
27 11
26 11
26 12
25 12
25 13
25 14
24 14
24 15
23 15
23 16
22 16
22 17
21 17
21 18
20 18
      </DataArray>
      <DataArray type="Int32" Name="offsets" format="ascii">
2
4
6
8
10
12
14
16
18
20
22
24
26
28
30
32
34
36
38
40
42
44
46
48
50
52
54
56
58
60
62
64
66
68
70
72
74
76
78
80
82
84
86
88
90
92
94
96
98
100
102
104
106
108
110
112
114
116
118
120
122
124
126
128
130
132
134
136
138
      </DataArray>
      <DataArray type="UInt8" Name="types" format="ascii">
4
4
4
4
4
4
4
4
4
4
4
4
4
4
4
4
4
4
4
4
4
4
4
4
4
4
4
4
4
4
4
4
4
4
4
4
4
4
4
4
4
4
4
4
4
4
4
4
4
4
4
4
4
4
4
4
4
4
4
4
4
4
4
4
4
4
4
4
4
      </DataArray>
    </Cells>
    <PointData>
      <DataArray type="Float64" NumberOfComponents="3" Name="Displacement" format="ascii">
0 0 0
-0.00501325 -0.00100891 0
-0.0139941 -0.00142448 0
-0.0238358 -0.00122766 0
-0.0314208 -0.000394529 0
-0.0332114 0.00723287 0
0.0213839 0.00574144 0
0.0212812 -0.00332337 0
0.0175244 -0.185415 0
0.0104455 -0.358905 0
0.0044529 -0.374232 0
-0.00679182 -0.195023 0
-0.0147263 -0.00564203 0
-0.0147583 0.00970283 0
0.0277131 -0.00112724 0
0.0284236 -0.00215743 0
0.0228954 -0.00255844 0
0.0142266 -0.00231816 0
0.00552628 -0.00145704 0
0 0 0
0 0 0
0.0056302 0.000386769 0
0.0143333 0.000132459 0
0.0229992 -0.000742095 0
0.0285248 -0.00221315 0
0.0278503 -0.00428302 0
0.0364895 -0.193649 0
0.0405881 -0.373032 0
-0.000695968 -0.358749 0
-0.0378094 -0.184305 0
-0.0335529 -0.000311375 0
-0.0313269 0.000966147 0
-0.0237475 0.00164955 0
-0.0139074 0.00173148 0
-0.00492174 0.00118661 0
0 0 0
      </DataArray> 
      <DataArray type="Float64" NumberOfComponents="3" Name="Velocity" format="ascii">
0 0 0
0 0 0
0 0 0
0 0 0
0 0 0
0 0 0
0 0 0
0 0 0
0 0 0
0 0 0
0 0 0
0 0 0
0 0 0
0 0 0
0 0 0
0 0 0
0 0 0
0 0 0
0 0 0
0 0 0
0 0 0
0 0 0
0 0 0
0 0 0
0 0 0
0 0 0
0 0 0
0 0 0
0 0 0
0 0 0
0 0 0
0 0 0
0 0 0
0 0 0
0 0 0
0 0 0
      </DataArray> 
      <DataArray type="Float64" NumberOfComponents="3" Name="Acceleration" format="ascii">
0 0 0
0 0 0
0 0 0
0 0 0
0 0 0
0 0 0
0 0 0
0 0 0
0 0 0
0 0 0
0 0 0
0 0 0
0 0 0
0 0 0
0 0 0
0 0 0
0 0 0
0 0 0
0 0 0
0 0 0
0 0 0
0 0 0
0 0 0
0 0 0
0 0 0
0 0 0
0 0 0
0 0 0
0 0 0
0 0 0
0 0 0
0 0 0
0 0 0
0 0 0
0 0 0
0 0 0
      </DataArray> 
    </PointData>
    <CellData>
    </CellData>
  </Piece>
  </UnstructuredGrid>
</VTKFile>
