<?xml version="1.0"?>
<VTKFile type="UnstructuredGrid">
  <UnstructuredGrid>
  <Piece NumberOfPoints="36"  NumberOfCells="69">
    <Points>
      <DataArray type="Float64" NumberOfComponents="3" format="ascii">
0 0 0
-0.0009261 0.999823 0
-0.00230743 1.9998 0
-0.00335183 2.99994 0
-0.00326747 4.00024 0
-0.00116711 5.00069 0
0.00503742 6.00067 0
0.405033 5.99876 0
3.40547 5.97329 0
6.40439 5.95268 0
9.40183 5.95246 0
12.3992 5.97262 0
15.3981 5.9983 0
15.7981 6.00028 0
15.804 4.99985 0
15.8054 3.99957 0
15.8048 2.99944 0
15.8032 1.99947 0
15.8014 0.999654 0
15.8 0 0
15.4 0 0
15.4014 1.00001 0
15.4033 1.99987 0
15.4049 2.99957 0
15.4054 3.99911 0
15.4041 4.99849 0
12.4049 4.97281 0
9.40412 4.95264 0
6.40176 4.95269 0
3.39946 4.97314 0
0.398757 4.99923 0
0.396757 3.9997 0
0.396673 3.00001 0
0.397718 2.00017 0
0.399099 1.00016 0
0.4 0 0
      </DataArray>
    </Points>
    <Cells>
      <DataArray type="Int32" Name="connectivity" format="ascii">
0 1
1 2
2 3
3 4
4 5
5 6
6 7
7 8
8 9
9 10
10 11
11 12
12 13
13 14
14 15
15 16
16 17
17 18
18 19
19 20
20 21
21 22
22 23
23 24
24 25
25 26
26 27
27 28
28 29
29 30
30 31
31 32
32 33
33 34
34 35
0 35
0 34
1 34
1 33
2 33
2 32
3 32
3 31
4 31
4 30
5 30
5 7
30 7
30 8
29 8
29 9
28 9
28 10
27 10
27 11
26 11
26 12
25 12
25 13
25 14
24 14
24 15
23 15
23 16
22 16
22 17
21 17
21 18
20 18
      </DataArray>
      <DataArray type="Int32" Name="offsets" format="ascii">
2
4
6
8
10
12
14
16
18
20
22
24
26
28
30
32
34
36
38
40
42
44
46
48
50
52
54
56
58
60
62
64
66
68
70
72
74
76
78
80
82
84
86
88
90
92
94
96
98
100
102
104
106
108
110
112
114
116
118
120
122
124
126
128
130
132
134
136
138
      </DataArray>
      <DataArray type="UInt8" Name="types" format="ascii">
4
4
4
4
4
4
4
4
4
4
4
4
4
4
4
4
4
4
4
4
4
4
4
4
4
4
4
4
4
4
4
4
4
4
4
4
4
4
4
4
4
4
4
4
4
4
4
4
4
4
4
4
4
4
4
4
4
4
4
4
4
4
4
4
4
4
4
4
4
      </DataArray>
    </Cells>
    <PointData>
      <DataArray type="Float64" NumberOfComponents="3" Name="Displacement" format="ascii">
0 0 0
-0.0009261 -0.000177155 0
-0.00230743 -0.00019663 0
-0.00335183 -5.77339e-05 0
-0.00326747 0.000239083 0
-0.00116711 0.000690268 0
0.00503742 0.00067102 0
0.00503283 -0.00124371 0
0.0054692 -0.0267101 0
0.00439244 -0.0473162 0
0.00183242 -0.0475396 0
-0.000796497 -0.0273787 0
-0.00191925 -0.00169944 0
-0.00185303 0.000278865 0
0.00402494 -0.000148063 0
0.00537106 -0.000434609 0
0.00484759 -0.000564284 0
0.00324522 -0.000534612 0
0.00135658 -0.000346017 0
0 0 0
0 0 0
0.00138209 1.46339e-05 0
0.00327076 -0.000129956 0
0.00487299 -0.00043242 0
0.00539678 -0.000891749 0
0.00405318 -0.00150915 0
0.00488286 -0.0271902 0
0.00412486 -0.04736 0
0.00175776 -0.0473077 0
-0.000537493 -0.0268635 0
-0.00124317 -0.000769118 0
-0.00324298 -0.00029812 0
-0.00332669 1.31183e-05 0
-0.00228231 0.000166752 0
-0.000900972 0.000162603 0
0 0 0
      </DataArray> 
      <DataArray type="Float64" NumberOfComponents="3" Name="Velocity" format="ascii">
0 0 0
0 0 0
0 0 0
0 0 0
0 0 0
0 0 0
0 0 0
0 0 0
0 0 0
0 0 0
0 0 0
0 0 0
0 0 0
0 0 0
0 0 0
0 0 0
0 0 0
0 0 0
0 0 0
0 0 0
0 0 0
0 0 0
0 0 0
0 0 0
0 0 0
0 0 0
0 0 0
0 0 0
0 0 0
0 0 0
0 0 0
0 0 0
0 0 0
0 0 0
0 0 0
0 0 0
      </DataArray> 
      <DataArray type="Float64" NumberOfComponents="3" Name="Acceleration" format="ascii">
0 0 0
0 0 0
0 0 0
0 0 0
0 0 0
0 0 0
0 0 0
0 0 0
0 0 0
0 0 0
0 0 0
0 0 0
0 0 0
0 0 0
0 0 0
0 0 0
0 0 0
0 0 0
0 0 0
0 0 0
0 0 0
0 0 0
0 0 0
0 0 0
0 0 0
0 0 0
0 0 0
0 0 0
0 0 0
0 0 0
0 0 0
0 0 0
0 0 0
0 0 0
0 0 0
0 0 0
      </DataArray> 
    </PointData>
    <CellData>
    </CellData>
  </Piece>
  </UnstructuredGrid>
</VTKFile>
