<?xml version="1.0"?>
<VTKFile type="UnstructuredGrid">
  <UnstructuredGrid>
  <Piece NumberOfPoints="36"  NumberOfCells="69">
    <Points>
      <DataArray type="Float64" NumberOfComponents="3" format="ascii">
0 0 0
-0.00203337 0.999647 0
-0.00509357 1.99962 0
-0.00753956 2.99992 0
-0.00773079 4.00055 0
-0.00383051 5.00149 0
0.0086522 6.00141 0
0.408634 5.9976 0
3.40936 5.94786 0
6.40754 5.90486 0
9.40335 5.90431 0
12.3989 5.9465 0
15.3969 5.99673 0
15.7971 6.00062 0
15.8089 4.99976 0
15.8114 3.99915 0
15.8101 2.99887 0
15.8067 1.99892 0
15.8028 0.999298 0
15.8 0 0
15.4 0 0
15.4028 1.00007 0
15.4068 1.99982 0
15.4102 2.99924 0
15.4115 3.99833 0
15.409 4.9971 0
12.4109 4.94687 0
9.41004 4.90464 0
6.40317 4.90488 0
3.39671 4.94764 0
0.396004 4.99864 0
0.392319 3.99957 0
0.392512 3.00016 0
0.394958 2.00044 0
0.398018 1.00038 0
0.4 0 0
      </DataArray>
    </Points>
    <Cells>
      <DataArray type="Int32" Name="connectivity" format="ascii">
0 1
1 2
2 3
3 4
4 5
5 6
6 7
7 8
8 9
9 10
10 11
11 12
12 13
13 14
14 15
15 16
16 17
17 18
18 19
19 20
20 21
21 22
22 23
23 24
24 25
25 26
26 27
27 28
28 29
29 30
30 31
31 32
32 33
33 34
34 35
0 35
0 34
1 34
1 33
2 33
2 32
3 32
3 31
4 31
4 30
5 30
5 7
30 7
30 8
29 8
29 9
28 9
28 10
27 10
27 11
26 11
26 12
25 12
25 13
25 14
24 14
24 15
23 15
23 16
22 16
22 17
21 17
21 18
20 18
      </DataArray>
      <DataArray type="Int32" Name="offsets" format="ascii">
2
4
6
8
10
12
14
16
18
20
22
24
26
28
30
32
34
36
38
40
42
44
46
48
50
52
54
56
58
60
62
64
66
68
70
72
74
76
78
80
82
84
86
88
90
92
94
96
98
100
102
104
106
108
110
112
114
116
118
120
122
124
126
128
130
132
134
136
138
      </DataArray>
      <DataArray type="UInt8" Name="types" format="ascii">
4
4
4
4
4
4
4
4
4
4
4
4
4
4
4
4
4
4
4
4
4
4
4
4
4
4
4
4
4
4
4
4
4
4
4
4
4
4
4
4
4
4
4
4
4
4
4
4
4
4
4
4
4
4
4
4
4
4
4
4
4
4
4
4
4
4
4
4
4
      </DataArray>
    </Cells>
    <PointData>
      <DataArray type="Float64" NumberOfComponents="3" Name="Displacement" format="ascii">
0 0 0
-0.00203337 -0.000353287 0
-0.00509357 -0.000381744 0
-0.00753956 -8.19401e-05 0
-0.00773079 0.000545339 0
-0.00383051 0.00148677 0
0.0086522 0.00140886 0
0.0086341 -0.00239577 0
0.00936221 -0.0521442 0
0.00753758 -0.095145 0
0.00335182 -0.0956911 0
-0.00112945 -0.0535026 0
-0.00307947 -0.00327043 0
-0.00294917 0.000621503 0
0.00890078 -0.000240117 0
0.0114211 -0.000846584 0
0.0101472 -0.00113012 0
0.00671517 -0.0010813 0
0.00276752 -0.000702471 0
0 0 0
0 0 0
0.00282079 7.49547e-05 0
0.00676865 -0.00018184 0
0.0102 -0.000764718 0
0.011475 -0.00166936 0
0.00896484 -0.00290084 0
0.0108861 -0.053135 0
0.0100352 -0.0953568 0
0.0031659 -0.095118 0
-0.00329395 -0.0523576 0
-0.00399622 -0.00136057 0
-0.00768139 -0.000431507 0
-0.00748788 0.000164683 0
-0.00504212 0.00043653 0
-0.00198184 0.00038273 0
0 0 0
      </DataArray> 
      <DataArray type="Float64" NumberOfComponents="3" Name="Velocity" format="ascii">
0 0 0
0 0 0
0 0 0
0 0 0
0 0 0
0 0 0
0 0 0
0 0 0
0 0 0
0 0 0
0 0 0
0 0 0
0 0 0
0 0 0
0 0 0
0 0 0
0 0 0
0 0 0
0 0 0
0 0 0
0 0 0
0 0 0
0 0 0
0 0 0
0 0 0
0 0 0
0 0 0
0 0 0
0 0 0
0 0 0
0 0 0
0 0 0
0 0 0
0 0 0
0 0 0
0 0 0
      </DataArray> 
      <DataArray type="Float64" NumberOfComponents="3" Name="Acceleration" format="ascii">
0 0 0
0 0 0
0 0 0
0 0 0
0 0 0
0 0 0
0 0 0
0 0 0
0 0 0
0 0 0
0 0 0
0 0 0
0 0 0
0 0 0
0 0 0
0 0 0
0 0 0
0 0 0
0 0 0
0 0 0
0 0 0
0 0 0
0 0 0
0 0 0
0 0 0
0 0 0
0 0 0
0 0 0
0 0 0
0 0 0
0 0 0
0 0 0
0 0 0
0 0 0
0 0 0
0 0 0
      </DataArray> 
    </PointData>
    <CellData>
    </CellData>
  </Piece>
  </UnstructuredGrid>
</VTKFile>
