<?xml version="1.0"?>
<VTKFile type="UnstructuredGrid">
  <UnstructuredGrid>
  <Piece NumberOfPoints="36"  NumberOfCells="69">
    <Points>
      <DataArray type="Float64" NumberOfComponents="3" format="ascii">
0 0 0
-0.00146974 0.999722 0
-0.00365898 1.99969 0
-0.00531271 2.99991 0
-0.00517671 4.00039 0
-0.00184785 5.0011 0
0.00798048 6.00105 0
0.407969 5.99802 0
3.40856 5.95781 0
6.40683 5.92508 0
9.40285 5.92464 0
12.3987 5.95671 0
15.3969 5.9973 0
15.797 6.00044 0
15.8063 4.99978 0
15.8084 3.99932 0
15.8076 2.99911 0
15.8051 1.99916 0
15.8021 0.999454 0
15.8 0 0
15.4 0 0
15.4022 1.00002 0
15.4052 1.99979 0
15.4077 2.99932 0
15.4085 3.99859 0
15.4063 4.99761 0
12.4078 4.95702 0
9.40665 4.92493 0
6.4027 4.9251 0
3.39901 4.95759 0
0.398028 4.99879 0
0.394861 3.99953 0
0.394727 3.00002 0
0.396381 2.00027 0
0.39857 1.00026 0
0.4 0 0
      </DataArray>
    </Points>
    <Cells>
      <DataArray type="Int32" Name="connectivity" format="ascii">
0 1
1 2
2 3
3 4
4 5
5 6
6 7
7 8
8 9
9 10
10 11
11 12
12 13
13 14
14 15
15 16
16 17
17 18
18 19
19 20
20 21
21 22
22 23
23 24
24 25
25 26
26 27
27 28
28 29
29 30
30 31
31 32
32 33
33 34
34 35
0 35
0 34
1 34
1 33
2 33
2 32
3 32
3 31
4 31
4 30
5 30
5 7
30 7
30 8
29 8
29 9
28 9
28 10
27 10
27 11
26 11
26 12
25 12
25 13
25 14
24 14
24 15
23 15
23 16
22 16
22 17
21 17
21 18
20 18
      </DataArray>
      <DataArray type="Int32" Name="offsets" format="ascii">
2
4
6
8
10
12
14
16
18
20
22
24
26
28
30
32
34
36
38
40
42
44
46
48
50
52
54
56
58
60
62
64
66
68
70
72
74
76
78
80
82
84
86
88
90
92
94
96
98
100
102
104
106
108
110
112
114
116
118
120
122
124
126
128
130
132
134
136
138
      </DataArray>
      <DataArray type="UInt8" Name="types" format="ascii">
4
4
4
4
4
4
4
4
4
4
4
4
4
4
4
4
4
4
4
4
4
4
4
4
4
4
4
4
4
4
4
4
4
4
4
4
4
4
4
4
4
4
4
4
4
4
4
4
4
4
4
4
4
4
4
4
4
4
4
4
4
4
4
4
4
4
4
4
4
      </DataArray>
    </Cells>
    <PointData>
      <DataArray type="Float64" NumberOfComponents="3" Name="Displacement" format="ascii">
0 0 0
-0.00146974 -0.000278111 0
-0.00365898 -0.000307091 0
-0.00531271 -8.52021e-05 0
-0.00517671 0.000386445 0
-0.00184785 0.00109898 0
0.00798048 0.00105068 0
0.00796899 -0.00198194 0
0.0085622 -0.0421911 0
0.00682977 -0.0749173 0
0.00285043 -0.075361 0
-0.00130103 -0.0432855 0
-0.00313985 -0.00269973 0
-0.00303933 0.000436953 0
0.00629222 -0.000224052 0
0.00844923 -0.000679419 0
0.00764114 -0.000887757 0
0.00511932 -0.000842823 0
0.00213989 -0.000545656 0
0 0 0
0 0 0
0.00218045 2.39517e-05 0
0.00515997 -0.000205064 0
0.00768144 -0.000683673 0
0.00849036 -0.00140939 0
0.00633969 -0.00238533 0
0.00775258 -0.0429755 0
0.00665356 -0.075073 0
0.00269949 -0.074896 0
-0.000993527 -0.0424122 0
-0.00197154 -0.00121067 0
-0.00513871 -0.000465708 0
-0.00527308 2.48877e-05 0
-0.00361939 0.000266539 0
-0.00143013 0.00025881 0
0 0 0
      </DataArray> 
      <DataArray type="Float64" NumberOfComponents="3" Name="Velocity" format="ascii">
0 0 0
0 0 0
0 0 0
0 0 0
0 0 0
0 0 0
0 0 0
0 0 0
0 0 0
0 0 0
0 0 0
0 0 0
0 0 0
0 0 0
0 0 0
0 0 0
0 0 0
0 0 0
0 0 0
0 0 0
0 0 0
0 0 0
0 0 0
0 0 0
0 0 0
0 0 0
0 0 0
0 0 0
0 0 0
0 0 0
0 0 0
0 0 0
0 0 0
0 0 0
0 0 0
0 0 0
      </DataArray> 
      <DataArray type="Float64" NumberOfComponents="3" Name="Acceleration" format="ascii">
0 0 0
0 0 0
0 0 0
0 0 0
0 0 0
0 0 0
0 0 0
0 0 0
0 0 0
0 0 0
0 0 0
0 0 0
0 0 0
0 0 0
0 0 0
0 0 0
0 0 0
0 0 0
0 0 0
0 0 0
0 0 0
0 0 0
0 0 0
0 0 0
0 0 0
0 0 0
0 0 0
0 0 0
0 0 0
0 0 0
0 0 0
0 0 0
0 0 0
0 0 0
0 0 0
0 0 0
      </DataArray> 
    </PointData>
    <CellData>
    </CellData>
  </Piece>
  </UnstructuredGrid>
</VTKFile>
