<?xml version="1.0"?>
<VTKFile type="UnstructuredGrid">
  <UnstructuredGrid>
  <Piece NumberOfPoints="36"  NumberOfCells="69">
    <Points>
      <DataArray type="Float64" NumberOfComponents="3" format="ascii">
0 0 0
-0.00578051 0.998962 0
-0.0156216 1.99853 0
-0.026318 2.99873 0
-0.0346529 3.9996 0
-0.0369508 5.00853 0
0.0249292 6.00662 0
0.424798 5.99637 0
3.41965 5.79172 0
6.41112 5.59606 0
9.40486 5.57538 0
12.3918 5.77938 0
15.3821 5.99401 0
15.782 6.01083 0
15.8283 4.99885 0
15.8291 3.99779 0
15.8235 2.99737 0
15.8146 1.99762 0
15.8057 0.998502 0
15.8 0 0
15.4 0 0
15.4058 1.00039 0
15.4147 2.00013 0
15.4236 2.99922 0
15.4292 3.9977 0
15.4284 4.99556 0
12.4389 4.78094 0
9.44449 4.57675 0
6.39796 4.59625 0
3.35701 4.79324 0
0.362671 4.99987 0
0.365443 4.0012 0
0.373771 3.00191 0
0.384466 2.00201 0
0.394312 1.00146 0
0.4 0 0
      </DataArray>
    </Points>
    <Cells>
      <DataArray type="Int32" Name="connectivity" format="ascii">
0 1
1 2
2 3
3 4
4 5
5 6
6 7
7 8
8 9
9 10
10 11
11 12
12 13
13 14
14 15
15 16
16 17
17 18
18 19
19 20
20 21
21 22
22 23
23 24
24 25
25 26
26 27
27 28
28 29
29 30
30 31
31 32
32 33
33 34
34 35
0 35
0 34
1 34
1 33
2 33
2 32
3 32
3 31
4 31
4 30
5 30
5 7
30 7
30 8
29 8
29 9
28 9
28 10
27 10
27 11
26 11
26 12
25 12
25 13
25 14
24 14
24 15
23 15
23 16
22 16
22 17
21 17
21 18
20 18
      </DataArray>
      <DataArray type="Int32" Name="offsets" format="ascii">
2
4
6
8
10
12
14
16
18
20
22
24
26
28
30
32
34
36
38
40
42
44
46
48
50
52
54
56
58
60
62
64
66
68
70
72
74
76
78
80
82
84
86
88
90
92
94
96
98
100
102
104
106
108
110
112
114
116
118
120
122
124
126
128
130
132
134
136
138
      </DataArray>
      <DataArray type="UInt8" Name="types" format="ascii">
4
4
4
4
4
4
4
4
4
4
4
4
4
4
4
4
4
4
4
4
4
4
4
4
4
4
4
4
4
4
4
4
4
4
4
4
4
4
4
4
4
4
4
4
4
4
4
4
4
4
4
4
4
4
4
4
4
4
4
4
4
4
4
4
4
4
4
4
4
      </DataArray>
    </Cells>
    <PointData>
      <DataArray type="Float64" NumberOfComponents="3" Name="Displacement" format="ascii">
0 0 0
-0.00578051 -0.00103822 0
-0.0156216 -0.00146736 0
-0.026318 -0.00126521 0
-0.0346529 -0.000404623 0
-0.0369508 0.00853248 0
0.0249292 0.00661608 0
0.024798 -0.00362607 0
0.0196477 -0.208285 0
0.0111216 -0.40394 0
0.00486161 -0.424624 0
-0.00820656 -0.22062 0
-0.0179302 -0.00598843 0
-0.0180129 0.0108288 0
0.028301 -0.00114597 0
0.0291277 -0.00221095 0
0.0235037 -0.00262774 0
0.0146216 -0.00238306 0
0.00568567 -0.00149833 0
0 0 0
0 0 0
0.00579286 0.000393313 0
0.0147316 0.000125481 0
0.0236107 -0.000781376 0
0.0292321 -0.00230225 0
0.0284456 -0.00443998 0
0.0388701 -0.219057 0
0.0444891 -0.423253 0
-0.00204412 -0.403745 0
-0.0429926 -0.206759 0
-0.0373294 -0.000129119 0
-0.0345571 0.00119701 0
-0.0262289 0.00191403 0
-0.0155345 0.00201272 0
-0.00568776 0.00146437 0
0 0 0
      </DataArray> 
      <DataArray type="Float64" NumberOfComponents="3" Name="Velocity" format="ascii">
0 0 0
0 0 0
0 0 0
0 0 0
0 0 0
0 0 0
0 0 0
0 0 0
0 0 0
0 0 0
0 0 0
0 0 0
0 0 0
0 0 0
0 0 0
0 0 0
0 0 0
0 0 0
0 0 0
0 0 0
0 0 0
0 0 0
0 0 0
0 0 0
0 0 0
0 0 0
0 0 0
0 0 0
0 0 0
0 0 0
0 0 0
0 0 0
0 0 0
0 0 0
0 0 0
0 0 0
      </DataArray> 
      <DataArray type="Float64" NumberOfComponents="3" Name="Acceleration" format="ascii">
0 0 0
0 0 0
0 0 0
0 0 0
0 0 0
0 0 0
0 0 0
0 0 0
0 0 0
0 0 0
0 0 0
0 0 0
0 0 0
0 0 0
0 0 0
0 0 0
0 0 0
0 0 0
0 0 0
0 0 0
0 0 0
0 0 0
0 0 0
0 0 0
0 0 0
0 0 0
0 0 0
0 0 0
0 0 0
0 0 0
0 0 0
0 0 0
0 0 0
0 0 0
0 0 0
0 0 0
      </DataArray> 
    </PointData>
    <CellData>
    </CellData>
  </Piece>
  </UnstructuredGrid>
</VTKFile>
