<?xml version="1.0"?>
<VTKFile type="UnstructuredGrid">
  <UnstructuredGrid>
  <Piece NumberOfPoints="36"  NumberOfCells="69">
    <Points>
      <DataArray type="Float64" NumberOfComponents="3" format="ascii">
0 0 0
-0.00195527 0.999657 0
-0.00489492 1.99963 0
-0.00723149 2.99992 0
-0.00737806 4.00052 0
-0.00355808 5.00143 0
0.00855501 6.00136 0
0.408538 5.99766 0
3.40925 5.94924 0
6.40744 5.90767 0
9.40328 5.90714 0
12.3988 5.94792 0
15.3969 5.99681 0
15.797 6.0006 0
15.8085 4.99976 0
15.811 3.99918 0
15.8098 2.9989 0
15.8065 1.99895 0
15.8027 0.999319 0
15.8 0 0
15.4 0 0
15.4027 1.00007 0
15.4065 1.99982 0
15.4099 2.99925 0
15.4111 3.99837 0
15.4086 4.99717 0
12.4105 4.94828 0
9.40956 4.90747 0
6.4031 4.9077 0
3.39702 4.94903 0
0.396282 4.99866 0
0.39267 3.99956 0
0.392819 3.00015 0
0.395155 2.00041 0
0.398095 1.00037 0
0.4 0 0
      </DataArray>
    </Points>
    <Cells>
      <DataArray type="Int32" Name="connectivity" format="ascii">
0 1
1 2
2 3
3 4
4 5
5 6
6 7
7 8
8 9
9 10
10 11
11 12
12 13
13 14
14 15
15 16
16 17
17 18
18 19
19 20
20 21
21 22
22 23
23 24
24 25
25 26
26 27
27 28
28 29
29 30
30 31
31 32
32 33
33 34
34 35
0 35
0 34
1 34
1 33
2 33
2 32
3 32
3 31
4 31
4 30
5 30
5 7
30 7
30 8
29 8
29 9
28 9
28 10
27 10
27 11
26 11
26 12
25 12
25 13
25 14
24 14
24 15
23 15
23 16
22 16
22 17
21 17
21 18
20 18
      </DataArray>
      <DataArray type="Int32" Name="offsets" format="ascii">
2
4
6
8
10
12
14
16
18
20
22
24
26
28
30
32
34
36
38
40
42
44
46
48
50
52
54
56
58
60
62
64
66
68
70
72
74
76
78
80
82
84
86
88
90
92
94
96
98
100
102
104
106
108
110
112
114
116
118
120
122
124
126
128
130
132
134
136
138
      </DataArray>
      <DataArray type="UInt8" Name="types" format="ascii">
4
4
4
4
4
4
4
4
4
4
4
4
4
4
4
4
4
4
4
4
4
4
4
4
4
4
4
4
4
4
4
4
4
4
4
4
4
4
4
4
4
4
4
4
4
4
4
4
4
4
4
4
4
4
4
4
4
4
4
4
4
4
4
4
4
4
4
4
4
      </DataArray>
    </Cells>
    <PointData>
      <DataArray type="Float64" NumberOfComponents="3" Name="Displacement" format="ascii">
0 0 0
-0.00195527 -0.000342882 0
-0.00489492 -0.000371414 0
-0.00723149 -8.2431e-05 0
-0.00737806 0.000523221 0
-0.00355808 0.00143289 0
0.00855501 0.00135953 0
0.00853793 -0.00233752 0
0.00924916 -0.0507579 0
0.00743948 -0.0923287 0
0.00328243 -0.0928608 0
-0.00115093 -0.0520798 0
-0.00308361 -0.00319044 0
-0.00295736 0.000596167 0
0.00854176 -0.000237982 0
0.0110106 -0.000823449 0
0.00980048 -0.00109651 0
0.0064942 -0.00104822 0
0.00268055 -0.000680735 0
0 0 0
0 0 0
0.00273205 6.79432e-05 0
0.00654589 -0.0001849 0
0.00985156 -0.000753217 0
0.0110627 -0.00163297 0
0.00860345 -0.00282893 0
0.0104522 -0.0517207 0
0.00956485 -0.0925334 0
0.00310133 -0.0923026 0
-0.0029754 -0.0509729 0
-0.00371788 -0.00133945 0
-0.00733024 -0.000435994 0
-0.00718149 0.000145498 0
-0.00484511 0.000413082 0
-0.00190539 0.000365594 0
0 0 0
      </DataArray> 
      <DataArray type="Float64" NumberOfComponents="3" Name="Velocity" format="ascii">
0 0 0
0 0 0
0 0 0
0 0 0
0 0 0
0 0 0
0 0 0
0 0 0
0 0 0
0 0 0
0 0 0
0 0 0
0 0 0
0 0 0
0 0 0
0 0 0
0 0 0
0 0 0
0 0 0
0 0 0
0 0 0
0 0 0
0 0 0
0 0 0
0 0 0
0 0 0
0 0 0
0 0 0
0 0 0
0 0 0
0 0 0
0 0 0
0 0 0
0 0 0
0 0 0
0 0 0
      </DataArray> 
      <DataArray type="Float64" NumberOfComponents="3" Name="Acceleration" format="ascii">
0 0 0
0 0 0
0 0 0
0 0 0
0 0 0
0 0 0
0 0 0
0 0 0
0 0 0
0 0 0
0 0 0
0 0 0
0 0 0
0 0 0
0 0 0
0 0 0
0 0 0
0 0 0
0 0 0
0 0 0
0 0 0
0 0 0
0 0 0
0 0 0
0 0 0
0 0 0
0 0 0
0 0 0
0 0 0
0 0 0
0 0 0
0 0 0
0 0 0
0 0 0
0 0 0
0 0 0
      </DataArray> 
    </PointData>
    <CellData>
    </CellData>
  </Piece>
  </UnstructuredGrid>
</VTKFile>
