<?xml version="1.0"?>
<VTKFile type="UnstructuredGrid">
  <UnstructuredGrid>
  <Piece NumberOfPoints="36"  NumberOfCells="69">
    <Points>
      <DataArray type="Float64" NumberOfComponents="3" format="ascii">
0 0 0
-0.00122808 0.999765 0
-0.00305636 1.99974 0
-0.00443077 2.99993 0
-0.00429781 4.00032 0
-0.00147827 5.00092 0
0.00679822 6.00089 0
0.40679 5.99833 0
3.40732 5.96437 0
6.40585 5.9369 0
9.40244 5.93661 0
12.3989 5.96348 0
15.3974 5.99772 0
15.7974 6.00037 0
15.8053 4.99981 0
15.8071 3.99942 0
15.8064 2.99925 0
15.8043 1.99929 0
15.8018 0.99954 0
15.8 0 0
15.4 0 0
15.4018 1.00002 0
15.4043 1.99982 0
15.4065 2.99942 0
15.4071 3.99881 0
15.4053 4.99799 0
12.4065 4.96374 0
9.4055 4.93685 0
6.40234 4.93692 0
3.39931 4.96417 0
0.398419 4.99897 0
0.395734 3.9996 0
0.395603 3.00001 0
0.396977 2.00022 0
0.398805 1.00021 0
0.4 0 0
      </DataArray>
    </Points>
    <Cells>
      <DataArray type="Int32" Name="connectivity" format="ascii">
0 1
1 2
2 3
3 4
4 5
5 6
6 7
7 8
8 9
9 10
10 11
11 12
12 13
13 14
14 15
15 16
16 17
17 18
18 19
19 20
20 21
21 22
22 23
23 24
24 25
25 26
26 27
27 28
28 29
29 30
30 31
31 32
32 33
33 34
34 35
0 35
0 34
1 34
1 33
2 33
2 32
3 32
3 31
4 31
4 30
5 30
5 7
30 7
30 8
29 8
29 9
28 9
28 10
27 10
27 11
26 11
26 12
25 12
25 13
25 14
24 14
24 15
23 15
23 16
22 16
22 17
21 17
21 18
20 18
      </DataArray>
      <DataArray type="Int32" Name="offsets" format="ascii">
2
4
6
8
10
12
14
16
18
20
22
24
26
28
30
32
34
36
38
40
42
44
46
48
50
52
54
56
58
60
62
64
66
68
70
72
74
76
78
80
82
84
86
88
90
92
94
96
98
100
102
104
106
108
110
112
114
116
118
120
122
124
126
128
130
132
134
136
138
      </DataArray>
      <DataArray type="UInt8" Name="types" format="ascii">
4
4
4
4
4
4
4
4
4
4
4
4
4
4
4
4
4
4
4
4
4
4
4
4
4
4
4
4
4
4
4
4
4
4
4
4
4
4
4
4
4
4
4
4
4
4
4
4
4
4
4
4
4
4
4
4
4
4
4
4
4
4
4
4
4
4
4
4
4
      </DataArray>
    </Cells>
    <PointData>
      <DataArray type="Float64" NumberOfComponents="3" Name="Displacement" format="ascii">
0 0 0
-0.00122808 -0.000234767 0
-0.00305636 -0.000260036 0
-0.00443077 -7.45991e-05 0
-0.00429781 0.000320719 0
-0.00147827 0.000919585 0
0.00679822 0.000885335 0
0.00679005 -0.00167098 0
0.00732194 -0.0356313 0
0.00585434 -0.0630961 0
0.00244014 -0.0633901 0
-0.00109548 -0.0365167 0
-0.0026418 -0.00227668 0
-0.00255592 0.000365459 0
0.00528824 -0.000194659 0
0.00710331 -0.000576058 0
0.00642575 -0.000749466 0
0.00430701 -0.000710455 0
0.001802 -0.00045975 0
0 0 0
0 0 0
0.00183601 1.79568e-05 0
0.00434108 -0.000176293 0
0.00645957 -0.00058036 0
0.00713772 -0.00119248 0
0.00532713 -0.00201483 0
0.00647857 -0.0362582 0
0.00549571 -0.0631472 0
0.00234053 -0.0630807 0
-0.00068806 -0.0358274 0
-0.00158098 -0.00103043 0
-0.00426563 -0.000402107 0
-0.00439742 1.29926e-05 0
-0.00302304 0.00021872 0
-0.00119474 0.000214784 0
0 0 0
      </DataArray> 
      <DataArray type="Float64" NumberOfComponents="3" Name="Velocity" format="ascii">
0 0 0
0 0 0
0 0 0
0 0 0
0 0 0
0 0 0
0 0 0
0 0 0
0 0 0
0 0 0
0 0 0
0 0 0
0 0 0
0 0 0
0 0 0
0 0 0
0 0 0
0 0 0
0 0 0
0 0 0
0 0 0
0 0 0
0 0 0
0 0 0
0 0 0
0 0 0
0 0 0
0 0 0
0 0 0
0 0 0
0 0 0
0 0 0
0 0 0
0 0 0
0 0 0
0 0 0
      </DataArray> 
      <DataArray type="Float64" NumberOfComponents="3" Name="Acceleration" format="ascii">
0 0 0
0 0 0
0 0 0
0 0 0
0 0 0
0 0 0
0 0 0
0 0 0
0 0 0
0 0 0
0 0 0
0 0 0
0 0 0
0 0 0
0 0 0
0 0 0
0 0 0
0 0 0
0 0 0
0 0 0
0 0 0
0 0 0
0 0 0
0 0 0
0 0 0
0 0 0
0 0 0
0 0 0
0 0 0
0 0 0
0 0 0
0 0 0
0 0 0
0 0 0
0 0 0
0 0 0
      </DataArray> 
    </PointData>
    <CellData>
    </CellData>
  </Piece>
  </UnstructuredGrid>
</VTKFile>
