<?xml version="1.0"?>
<VTKFile type="UnstructuredGrid">
  <UnstructuredGrid>
  <Piece NumberOfPoints="36"  NumberOfCells="69">
    <Points>
      <DataArray type="Float64" NumberOfComponents="3" format="ascii">
0 0 0
-0.00382843 0.999266 0
-0.0104035 1.99902 0
-0.0171884 2.99929 0
-0.021641 4.00007 0
-0.0209196 5.00302 0
0.00837694 6.00259 0
0.408345 5.99751 0
3.40811 5.89395 0
6.40482 5.79753 0
9.39977 5.79788 0
12.3933 5.89248 0
15.3899 5.99531 0
15.79 6.00504 0
15.8177 4.99946 0
15.8201 3.99855 0
15.817 2.99815 0
15.8109 1.99826 0
15.8043 0.998883 0
15.8 0 0
15.4 0 0
15.4044 1.00023 0
15.411 1.99994 0
15.4171 2.99915 0
15.4202 3.99786 0
15.4178 4.99608 0
12.4219 4.89326 0
9.42228 4.79855 0
6.39983 4.7976 0
3.37816 4.89404 0
0.378841 4.99925 0
0.378437 4.0004 0
0.382888 3.00105 0
0.389671 2.00121 0
0.396249 1.00086 0
0.4 0 0
      </DataArray>
    </Points>
    <Cells>
      <DataArray type="Int32" Name="connectivity" format="ascii">
0 1
1 2
2 3
3 4
4 5
5 6
6 7
7 8
8 9
9 10
10 11
11 12
12 13
13 14
14 15
15 16
16 17
17 18
18 19
19 20
20 21
21 22
22 23
23 24
24 25
25 26
26 27
27 28
28 29
29 30
30 31
31 32
32 33
33 34
34 35
0 35
0 34
1 34
1 33
2 33
2 32
3 32
3 31
4 31
4 30
5 30
5 7
30 7
30 8
29 8
29 9
28 9
28 10
27 10
27 11
26 11
26 12
25 12
25 13
25 14
24 14
24 15
23 15
23 16
22 16
22 17
21 17
21 18
20 18
      </DataArray>
      <DataArray type="Int32" Name="offsets" format="ascii">
2
4
6
8
10
12
14
16
18
20
22
24
26
28
30
32
34
36
38
40
42
44
46
48
50
52
54
56
58
60
62
64
66
68
70
72
74
76
78
80
82
84
86
88
90
92
94
96
98
100
102
104
106
108
110
112
114
116
118
120
122
124
126
128
130
132
134
136
138
      </DataArray>
      <DataArray type="UInt8" Name="types" format="ascii">
4
4
4
4
4
4
4
4
4
4
4
4
4
4
4
4
4
4
4
4
4
4
4
4
4
4
4
4
4
4
4
4
4
4
4
4
4
4
4
4
4
4
4
4
4
4
4
4
4
4
4
4
4
4
4
4
4
4
4
4
4
4
4
4
4
4
4
4
4
      </DataArray>
    </Cells>
    <PointData>
      <DataArray type="Float64" NumberOfComponents="3" Name="Displacement" format="ascii">
0 0 0
-0.00382843 -0.000733931 0
-0.0104035 -0.000975366 0
-0.0171884 -0.000712246 0
-0.021641 6.68395e-05 0
-0.0209196 0.0030203 0
0.00837694 0.00259106 0
0.00834462 -0.00249353 0
0.00810567 -0.106049 0
0.0048196 -0.202465 0
-0.000233801 -0.202124 0
-0.00672735 -0.107522 0
-0.0101404 -0.00469127 0
-0.0100333 0.00503679 0
0.017733 -0.000541973 0
0.0200982 -0.00145013 0
0.0169682 -0.00185475 0
0.0108704 -0.00174054 0
0.00434175 -0.00111704 0
0 0 0
0 0 0
0.00442521 0.000227893 0
0.0109549 -6.16249e-05 0
0.0170509 -0.000854922 0
0.0201813 -0.00213937 0
0.0178413 -0.00392253 0
0.0218685 -0.106741 0
0.0222848 -0.201453 0
-0.000174335 -0.202402 0
-0.0218383 -0.105963 0
-0.021159 -0.000751906 0
-0.0215627 0.000397602 0
-0.017112 0.00105119 0
-0.0103286 0.00121108 0
-0.00375149 0.000863993 0
0 0 0
      </DataArray> 
      <DataArray type="Float64" NumberOfComponents="3" Name="Velocity" format="ascii">
0 0 0
0 0 0
0 0 0
0 0 0
0 0 0
0 0 0
0 0 0
0 0 0
0 0 0
0 0 0
0 0 0
0 0 0
0 0 0
0 0 0
0 0 0
0 0 0
0 0 0
0 0 0
0 0 0
0 0 0
0 0 0
0 0 0
0 0 0
0 0 0
0 0 0
0 0 0
0 0 0
0 0 0
0 0 0
0 0 0
0 0 0
0 0 0
0 0 0
0 0 0
0 0 0
0 0 0
      </DataArray> 
      <DataArray type="Float64" NumberOfComponents="3" Name="Acceleration" format="ascii">
0 0 0
0 0 0
0 0 0
0 0 0
0 0 0
0 0 0
0 0 0
0 0 0
0 0 0
0 0 0
0 0 0
0 0 0
0 0 0
0 0 0
0 0 0
0 0 0
0 0 0
0 0 0
0 0 0
0 0 0
0 0 0
0 0 0
0 0 0
0 0 0
0 0 0
0 0 0
0 0 0
0 0 0
0 0 0
0 0 0
0 0 0
0 0 0
0 0 0
0 0 0
0 0 0
0 0 0
      </DataArray> 
    </PointData>
    <CellData>
    </CellData>
  </Piece>
  </UnstructuredGrid>
</VTKFile>
