<?xml version="1.0"?>
<VTKFile type="UnstructuredGrid">
  <UnstructuredGrid>
  <Piece NumberOfPoints="36"  NumberOfCells="69">
    <Points>
      <DataArray type="Float64" NumberOfComponents="3" format="ascii">
0 0 0
-0.00959999 0.998886 0
-0.0232965 1.99846 0
-0.0374233 2.99875 0
-0.048302 3.99981 0
-0.0514788 5.01642 0
0.0553482 6.0107 0
0.454947 5.99278 0
3.4374 5.64896 0
6.41631 5.31678 0
9.40821 5.26395 0
12.3793 5.62091 0
15.3537 5.9914 0
15.7532 6.01777 0
15.8244 5.00027 0
15.8302 3.99775 0
15.8251 2.99721 0
15.8159 1.99742 0
15.8063 0.998359 0
15.8 0 0
15.4 0 0
15.4064 1.00036 0
15.416 1.99996 0
15.4252 2.99885 0
15.4303 3.99704 0
15.4246 4.99451 0
12.4507 4.62401 0
9.47021 4.26673 0
6.39097 4.3173 0
3.32973 4.65424 0
0.347824 5.00045 0
0.351803 4.00209 0
0.362669 3.00305 0
0.376791 2.00331 0
0.390496 1.00285 0
0.4 0 0
      </DataArray>
    </Points>
    <Cells>
      <DataArray type="Int32" Name="connectivity" format="ascii">
0 1
1 2
2 3
3 4
4 5
5 6
6 7
7 8
8 9
9 10
10 11
11 12
12 13
13 14
14 15
15 16
16 17
17 18
18 19
19 20
20 21
21 22
22 23
23 24
24 25
25 26
26 27
27 28
28 29
29 30
30 31
31 32
32 33
33 34
34 35
0 35
0 34
1 34
1 33
2 33
2 32
3 32
3 31
4 31
4 30
5 30
5 7
30 7
30 8
29 8
29 9
28 9
28 10
27 10
27 11
26 11
26 12
25 12
25 13
25 14
24 14
24 15
23 15
23 16
22 16
22 17
21 17
21 18
20 18
      </DataArray>
      <DataArray type="Int32" Name="offsets" format="ascii">
2
4
6
8
10
12
14
16
18
20
22
24
26
28
30
32
34
36
38
40
42
44
46
48
50
52
54
56
58
60
62
64
66
68
70
72
74
76
78
80
82
84
86
88
90
92
94
96
98
100
102
104
106
108
110
112
114
116
118
120
122
124
126
128
130
132
134
136
138
      </DataArray>
      <DataArray type="UInt8" Name="types" format="ascii">
4
4
4
4
4
4
4
4
4
4
4
4
4
4
4
4
4
4
4
4
4
4
4
4
4
4
4
4
4
4
4
4
4
4
4
4
4
4
4
4
4
4
4
4
4
4
4
4
4
4
4
4
4
4
4
4
4
4
4
4
4
4
4
4
4
4
4
4
4
      </DataArray>
    </Cells>
    <PointData>
      <DataArray type="Float64" NumberOfComponents="3" Name="Displacement" format="ascii">
0 0 0
-0.00959999 -0.00111442 0
-0.0232965 -0.00154426 0
-0.0374233 -0.00124934 0
-0.048302 -0.000189283 0
-0.0514788 0.0164226 0
0.0553482 0.0107003 0
0.0549466 -0.00721987 0
0.0374025 -0.351036 0
0.0163127 -0.683224 0
0.00821123 -0.73605 0
-0.0207031 -0.379093 0
-0.0462614 -0.00859713 0
-0.0468147 0.0177735 0
0.0243706 0.00027485 0
0.0301896 -0.00225323 0
0.0250964 -0.00279485 0
0.0159194 -0.0025832 0
0.00630134 -0.00164055 0
0 0 0
0 0 0
0.00642298 0.00035786 0
0.0160436 -3.51634e-05 0
0.0252167 -0.00115076 0
0.030311 -0.00296085 0
0.0245759 -0.00548707 0
0.0506936 -0.375987 0
0.0702079 -0.733268 0
-0.00902605 -0.682695 0
-0.0702734 -0.345757 0
-0.0521756 0.000450348 0
-0.0481967 0.00208839 0
-0.0373306 0.00304723 0
-0.0232092 0.00331439 0
-0.00950449 0.00284603 0
0 0 0
      </DataArray> 
      <DataArray type="Float64" NumberOfComponents="3" Name="Velocity" format="ascii">
0 0 0
0 0 0
0 0 0
0 0 0
0 0 0
0 0 0
0 0 0
0 0 0
0 0 0
0 0 0
0 0 0
0 0 0
0 0 0
0 0 0
0 0 0
0 0 0
0 0 0
0 0 0
0 0 0
0 0 0
0 0 0
0 0 0
0 0 0
0 0 0
0 0 0
0 0 0
0 0 0
0 0 0
0 0 0
0 0 0
0 0 0
0 0 0
0 0 0
0 0 0
0 0 0
0 0 0
      </DataArray> 
      <DataArray type="Float64" NumberOfComponents="3" Name="Acceleration" format="ascii">
0 0 0
0 0 0
0 0 0
0 0 0
0 0 0
0 0 0
0 0 0
0 0 0
0 0 0
0 0 0
0 0 0
0 0 0
0 0 0
0 0 0
0 0 0
0 0 0
0 0 0
0 0 0
0 0 0
0 0 0
0 0 0
0 0 0
0 0 0
0 0 0
0 0 0
0 0 0
0 0 0
0 0 0
0 0 0
0 0 0
0 0 0
0 0 0
0 0 0
0 0 0
0 0 0
0 0 0
      </DataArray> 
    </PointData>
    <CellData>
    </CellData>
  </Piece>
  </UnstructuredGrid>
</VTKFile>
