<?xml version="1.0"?>
<VTKFile type="UnstructuredGrid">
  <UnstructuredGrid>
  <Piece NumberOfPoints="36"  NumberOfCells="69">
    <Points>
      <DataArray type="Float64" NumberOfComponents="3" format="ascii">
0 0 0
-0.000422722 0.999919 0
-0.00105515 1.99991 0
-0.00153773 2.99997 0
-0.00151097 4.00011 0
-0.000571395 5.00031 0
0.00223343 6.00031 0
0.402232 5.99944 0
3.40246 5.98793 0
6.40199 5.9786 0
9.40083 5.9785 0
12.3997 5.98762 0
15.3992 5.99924 0
15.7992 6.00013 0
15.8019 4.99993 0
15.8025 3.9998 0
15.8022 2.99974 0
15.8015 1.99976 0
15.8006 0.999843 0
15.8 0 0
15.4 0 0
15.4006 1.00001 0
15.4015 1.99994 0
15.4022 2.99981 0
15.4025 3.9996 0
15.4019 4.99932 0
12.4022 4.9877 0
9.40187 4.97857 0
6.4008 4.9786 0
3.39974 4.98785 0
0.399395 4.99965 0
0.3985 3.99987 0
0.398474 3.00001 0
0.398956 2.00008 0
0.399589 1.00007 0
0.4 0 0
      </DataArray>
    </Points>
    <Cells>
      <DataArray type="Int32" Name="connectivity" format="ascii">
0 1
1 2
2 3
3 4
4 5
5 6
6 7
7 8
8 9
9 10
10 11
11 12
12 13
13 14
14 15
15 16
16 17
17 18
18 19
19 20
20 21
21 22
22 23
23 24
24 25
25 26
26 27
27 28
28 29
29 30
30 31
31 32
32 33
33 34
34 35
0 35
0 34
1 34
1 33
2 33
2 32
3 32
3 31
4 31
4 30
5 30
5 7
30 7
30 8
29 8
29 9
28 9
28 10
27 10
27 11
26 11
26 12
25 12
25 13
25 14
24 14
24 15
23 15
23 16
22 16
22 17
21 17
21 18
20 18
      </DataArray>
      <DataArray type="Int32" Name="offsets" format="ascii">
2
4
6
8
10
12
14
16
18
20
22
24
26
28
30
32
34
36
38
40
42
44
46
48
50
52
54
56
58
60
62
64
66
68
70
72
74
76
78
80
82
84
86
88
90
92
94
96
98
100
102
104
106
108
110
112
114
116
118
120
122
124
126
128
130
132
134
136
138
      </DataArray>
      <DataArray type="UInt8" Name="types" format="ascii">
4
4
4
4
4
4
4
4
4
4
4
4
4
4
4
4
4
4
4
4
4
4
4
4
4
4
4
4
4
4
4
4
4
4
4
4
4
4
4
4
4
4
4
4
4
4
4
4
4
4
4
4
4
4
4
4
4
4
4
4
4
4
4
4
4
4
4
4
4
      </DataArray>
    </Cells>
    <PointData>
      <DataArray type="Float64" NumberOfComponents="3" Name="Displacement" format="ascii">
0 0 0
-0.000422722 -8.09453e-05 0
-0.00105515 -9.01353e-05 0
-0.00153773 -2.74257e-05 0
-0.00151097 0.000107096 0
-0.000571395 0.000312708 0
0.00223343 0.000308774 0
0.0022325 -0.000555591 0
0.00245773 -0.0120736 0
0.00198842 -0.0214015 0
0.000830733 -0.0215048 0
-0.000341645 -0.0123795 0
-0.000822098 -0.000762828 0
-0.000790809 0.000129703 0
0.00186456 -6.85048e-05 0
0.00246226 -0.000198493 0
0.00221408 -0.000256879 0
0.00147927 -0.000243161 0
0.0006175 -0.000157431 0
0 0 0
0 0 0
0.000629039 7.49014e-06 0
0.00149082 -5.70975e-05 0
0.00222559 -0.000193484 0
0.00247384 -0.000401458 0
0.00187665 -0.000681262 0
0.00222682 -0.0122983 0
0.0018684 -0.0214254 0
0.00079699 -0.0213998 0
-0.000259109 -0.0121478 0
-0.00060508 -0.000345203 0
-0.00149964 -0.000132284 0
-0.00152627 8.45934e-06 0
-0.0010437 7.7465e-05 0
-0.000411262 7.46918e-05 0
0 0 0
      </DataArray> 
      <DataArray type="Float64" NumberOfComponents="3" Name="Velocity" format="ascii">
0 0 0
0 0 0
0 0 0
0 0 0
0 0 0
0 0 0
0 0 0
0 0 0
0 0 0
0 0 0
0 0 0
0 0 0
0 0 0
0 0 0
0 0 0
0 0 0
0 0 0
0 0 0
0 0 0
0 0 0
0 0 0
0 0 0
0 0 0
0 0 0
0 0 0
0 0 0
0 0 0
0 0 0
0 0 0
0 0 0
0 0 0
0 0 0
0 0 0
0 0 0
0 0 0
0 0 0
      </DataArray> 
      <DataArray type="Float64" NumberOfComponents="3" Name="Acceleration" format="ascii">
0 0 0
0 0 0
0 0 0
0 0 0
0 0 0
0 0 0
0 0 0
0 0 0
0 0 0
0 0 0
0 0 0
0 0 0
0 0 0
0 0 0
0 0 0
0 0 0
0 0 0
0 0 0
0 0 0
0 0 0
0 0 0
0 0 0
0 0 0
0 0 0
0 0 0
0 0 0
0 0 0
0 0 0
0 0 0
0 0 0
0 0 0
0 0 0
0 0 0
0 0 0
0 0 0
0 0 0
      </DataArray> 
    </PointData>
    <CellData>
    </CellData>
  </Piece>
  </UnstructuredGrid>
</VTKFile>
