<?xml version="1.0"?>
<VTKFile type="UnstructuredGrid">
  <UnstructuredGrid>
  <Piece NumberOfPoints="36"  NumberOfCells="69">
    <Points>
      <DataArray type="Float64" NumberOfComponents="3" format="ascii">
0 0 0
-0.00948361 0.998888 0
-0.023067 1.99846 0
-0.0371068 2.99875 0
-0.0479476 3.99979 0
-0.0511796 5.01601 0
0.0532197 6.01055 0
0.452837 5.99306 0
3.43613 5.65676 0
6.41588 5.33193 0
9.40789 5.28081 0
12.38 5.62949 0
15.3555 5.99155 0
15.755 6.01738 0
15.8248 5.00007 0
15.8301 3.99776 0
15.825 2.99722 0
15.8158 1.99743 0
15.8063 0.998369 0
15.8 0 0
15.4 0 0
15.4064 1.00036 0
15.416 1.99997 0
15.4251 2.99886 0
15.4302 3.99707 0
15.425 4.99456 0
12.4501 4.6325 0
9.46863 4.28349 0
6.39119 4.33244 0
3.33089 4.66178 0
0.348145 5.00045 0
0.352157 4.00207 0
0.362985 3.00302 0
0.37702 2.00328 0
0.390612 1.00281 0
0.4 0 0
      </DataArray>
    </Points>
    <Cells>
      <DataArray type="Int32" Name="connectivity" format="ascii">
0 1
1 2
2 3
3 4
4 5
5 6
6 7
7 8
8 9
9 10
10 11
11 12
12 13
13 14
14 15
15 16
16 17
17 18
18 19
19 20
20 21
21 22
22 23
23 24
24 25
25 26
26 27
27 28
28 29
29 30
30 31
31 32
32 33
33 34
34 35
0 35
0 34
1 34
1 33
2 33
2 32
3 32
3 31
4 31
4 30
5 30
5 7
30 7
30 8
29 8
29 9
28 9
28 10
27 10
27 11
26 11
26 12
25 12
25 13
25 14
24 14
24 15
23 15
23 16
22 16
22 17
21 17
21 18
20 18
      </DataArray>
      <DataArray type="Int32" Name="offsets" format="ascii">
2
4
6
8
10
12
14
16
18
20
22
24
26
28
30
32
34
36
38
40
42
44
46
48
50
52
54
56
58
60
62
64
66
68
70
72
74
76
78
80
82
84
86
88
90
92
94
96
98
100
102
104
106
108
110
112
114
116
118
120
122
124
126
128
130
132
134
136
138
      </DataArray>
      <DataArray type="UInt8" Name="types" format="ascii">
4
4
4
4
4
4
4
4
4
4
4
4
4
4
4
4
4
4
4
4
4
4
4
4
4
4
4
4
4
4
4
4
4
4
4
4
4
4
4
4
4
4
4
4
4
4
4
4
4
4
4
4
4
4
4
4
4
4
4
4
4
4
4
4
4
4
4
4
4
      </DataArray>
    </Cells>
    <PointData>
      <DataArray type="Float64" NumberOfComponents="3" Name="Displacement" format="ascii">
0 0 0
-0.00948361 -0.00111182 0
-0.023067 -0.00154316 0
-0.0371068 -0.00125455 0
-0.0479476 -0.000205984 0
-0.0511796 0.0160098 0
0.0532197 0.0105453 0
0.0528374 -0.00694028 0
0.0361303 -0.343242 0
0.0158799 -0.668065 0
0.00788693 -0.719194 0
-0.0199658 -0.370506 0
-0.044453 -0.00844747 0
-0.0449727 0.0173797 0
0.0248055 7.38107e-05 0
0.030058 -0.00224256 0
0.0249719 -0.00278002 0
0.0158342 -0.00256891 0
0.0062653 -0.00163133 0
0 0 0
0 0 0
0.00638619 0.000357812 0
0.0159577 -3.06157e-05 0
0.0250916 -0.00113732 0
0.0301784 -0.00293446 0
0.0250058 -0.00544103 0
0.0500675 -0.367501 0
0.0686313 -0.716505 0
-0.00881434 -0.667558 0
-0.0691147 -0.338218 0
-0.0518549 0.000452448 0
-0.0478429 0.0020742 0
-0.0370145 0.00302068 0
-0.0229799 0.00327921 0
-0.00938843 0.00280643 0
0 0 0
      </DataArray> 
      <DataArray type="Float64" NumberOfComponents="3" Name="Velocity" format="ascii">
0 0 0
0 0 0
0 0 0
0 0 0
0 0 0
0 0 0
0 0 0
0 0 0
0 0 0
0 0 0
0 0 0
0 0 0
0 0 0
0 0 0
0 0 0
0 0 0
0 0 0
0 0 0
0 0 0
0 0 0
0 0 0
0 0 0
0 0 0
0 0 0
0 0 0
0 0 0
0 0 0
0 0 0
0 0 0
0 0 0
0 0 0
0 0 0
0 0 0
0 0 0
0 0 0
0 0 0
      </DataArray> 
      <DataArray type="Float64" NumberOfComponents="3" Name="Acceleration" format="ascii">
0 0 0
0 0 0
0 0 0
0 0 0
0 0 0
0 0 0
0 0 0
0 0 0
0 0 0
0 0 0
0 0 0
0 0 0
0 0 0
0 0 0
0 0 0
0 0 0
0 0 0
0 0 0
0 0 0
0 0 0
0 0 0
0 0 0
0 0 0
0 0 0
0 0 0
0 0 0
0 0 0
0 0 0
0 0 0
0 0 0
0 0 0
0 0 0
0 0 0
0 0 0
0 0 0
0 0 0
      </DataArray> 
    </PointData>
    <CellData>
    </CellData>
  </Piece>
  </UnstructuredGrid>
</VTKFile>
