<?xml version="1.0"?>
<VTKFile type="UnstructuredGrid">
  <UnstructuredGrid>
  <Piece NumberOfPoints="36"  NumberOfCells="69">
    <Points>
      <DataArray type="Float64" NumberOfComponents="3" format="ascii">
0 0 0
-0.000890047 0.99983 0
-0.0022179 1.99981 0
-0.00322254 2.99994 0
-0.00314326 4.00023 0
-0.00112761 5.00066 0
0.0048312 6.00065 0
0.404827 5.99881 0
3.40525 5.97435 0
6.40422 5.95456 0
9.40176 5.95434 0
12.3992 5.97371 0
15.3982 5.99837 0
15.7982 6.00027 0
15.8039 4.99986 0
15.8052 3.99958 0
15.8047 2.99946 0
15.8031 1.99949 0
15.8013 0.999668 0
15.8 0 0
15.4 0 0
15.4013 1.00001 0
15.4031 1.99988 0
15.4047 2.99959 0
15.4052 3.99914 0
15.4039 4.99855 0
12.4047 4.97389 0
9.40396 4.95451 0
6.40169 4.95456 0
3.39948 4.9742 0
0.398799 4.99926 0
0.39688 3.99971 0
0.396802 3.00001 0
0.397806 2.00016 0
0.399134 1.00016 0
0.4 0 0
      </DataArray>
    </Points>
    <Cells>
      <DataArray type="Int32" Name="connectivity" format="ascii">
0 1
1 2
2 3
3 4
4 5
5 6
6 7
7 8
8 9
9 10
10 11
11 12
12 13
13 14
14 15
15 16
16 17
17 18
18 19
19 20
20 21
21 22
22 23
23 24
24 25
25 26
26 27
27 28
28 29
29 30
30 31
31 32
32 33
33 34
34 35
0 35
0 34
1 34
1 33
2 33
2 32
3 32
3 31
4 31
4 30
5 30
5 7
30 7
30 8
29 8
29 9
28 9
28 10
27 10
27 11
26 11
26 12
25 12
25 13
25 14
24 14
24 15
23 15
23 16
22 16
22 17
21 17
21 18
20 18
      </DataArray>
      <DataArray type="Int32" Name="offsets" format="ascii">
2
4
6
8
10
12
14
16
18
20
22
24
26
28
30
32
34
36
38
40
42
44
46
48
50
52
54
56
58
60
62
64
66
68
70
72
74
76
78
80
82
84
86
88
90
92
94
96
98
100
102
104
106
108
110
112
114
116
118
120
122
124
126
128
130
132
134
136
138
      </DataArray>
      <DataArray type="UInt8" Name="types" format="ascii">
4
4
4
4
4
4
4
4
4
4
4
4
4
4
4
4
4
4
4
4
4
4
4
4
4
4
4
4
4
4
4
4
4
4
4
4
4
4
4
4
4
4
4
4
4
4
4
4
4
4
4
4
4
4
4
4
4
4
4
4
4
4
4
4
4
4
4
4
4
      </DataArray>
    </Cells>
    <PointData>
      <DataArray type="Float64" NumberOfComponents="3" Name="Displacement" format="ascii">
0 0 0
-0.000890047 -0.000170272 0
-0.0022179 -0.000189035 0
-0.00322254 -5.56526e-05 0
-0.00314326 0.000229462 0
-0.00112761 0.000663034 0
0.0048312 0.00064528 0
0.00482698 -0.00119344 0
0.00525035 -0.0256521 0
0.00421891 -0.0454442 0
0.00176021 -0.0456591 0
-0.000762132 -0.0262948 0
-0.00183626 -0.00163131 0
-0.00177246 0.000268379 0
0.00387244 -0.000142442 0
0.00516359 -0.00041771 0
0.00465908 -0.000542214 0
0.00311857 -0.000513669 0
0.0013035 -0.000332469 0
0 0 0
0 0 0
0.001328 1.41882e-05 0
0.00314311 -0.000124558 0
0.00468349 -0.000414991 0
0.0051883 -0.00085618 0
0.00389947 -0.00144924 0
0.00469246 -0.0261144 0
0.00396207 -0.0454868 0
0.00168851 -0.0454363 0
-0.000518679 -0.0258003 0
-0.00120054 -0.000738277 0
-0.00311971 -0.000285934 0
-0.00319838 1.29851e-05 0
-0.00219376 0.000160467 0
-0.000865899 0.000156345 0
0 0 0
      </DataArray> 
      <DataArray type="Float64" NumberOfComponents="3" Name="Velocity" format="ascii">
0 0 0
0 0 0
0 0 0
0 0 0
0 0 0
0 0 0
0 0 0
0 0 0
0 0 0
0 0 0
0 0 0
0 0 0
0 0 0
0 0 0
0 0 0
0 0 0
0 0 0
0 0 0
0 0 0
0 0 0
0 0 0
0 0 0
0 0 0
0 0 0
0 0 0
0 0 0
0 0 0
0 0 0
0 0 0
0 0 0
0 0 0
0 0 0
0 0 0
0 0 0
0 0 0
0 0 0
      </DataArray> 
      <DataArray type="Float64" NumberOfComponents="3" Name="Acceleration" format="ascii">
0 0 0
0 0 0
0 0 0
0 0 0
0 0 0
0 0 0
0 0 0
0 0 0
0 0 0
0 0 0
0 0 0
0 0 0
0 0 0
0 0 0
0 0 0
0 0 0
0 0 0
0 0 0
0 0 0
0 0 0
0 0 0
0 0 0
0 0 0
0 0 0
0 0 0
0 0 0
0 0 0
0 0 0
0 0 0
0 0 0
0 0 0
0 0 0
0 0 0
0 0 0
0 0 0
0 0 0
      </DataArray> 
    </PointData>
    <CellData>
    </CellData>
  </Piece>
  </UnstructuredGrid>
</VTKFile>
