<?xml version="1.0"?>
<VTKFile type="UnstructuredGrid">
  <UnstructuredGrid>
  <Piece NumberOfPoints="36"  NumberOfCells="69">
    <Points>
      <DataArray type="Float64" NumberOfComponents="3" format="ascii">
0 0 0
-0.00502759 0.998988 0
-0.0140365 1.99857 0
-0.0239125 2.99877 0
-0.0315303 3.9996 0
-0.0333426 5.0073 0
0.02166 6.00579 0
0.421556 5.99665 0
3.41773 5.8133 0
6.41057 5.63857 0
9.40456 5.62294 0
12.3932 5.80354 0
15.3852 5.99434 0
15.7852 6.00977 0
15.8278 4.99887 0
15.8285 3.99783 0
15.823 2.99743 0
15.8143 1.99767 0
15.8055 0.998539 0
15.8 0 0
15.4 0 0
15.4056 1.00039 0
15.4144 2.00013 0
15.4231 2.99926 0
15.4286 3.99778 0
15.428 4.99571 0
12.4367 4.80493 0
9.44089 4.62415 0
6.39931 4.63873 0
3.36198 4.81443 0
0.366314 4.99969 0
0.368564 4.00097 0
0.376176 3.00166 0
0.38605 2.00174 0
0.395064 1.00119 0
0.4 0 0
      </DataArray>
    </Points>
    <Cells>
      <DataArray type="Int32" Name="connectivity" format="ascii">
0 1
1 2
2 3
3 4
4 5
5 6
6 7
7 8
8 9
9 10
10 11
11 12
12 13
13 14
14 15
15 16
16 17
17 18
18 19
19 20
20 21
21 22
22 23
23 24
24 25
25 26
26 27
27 28
28 29
29 30
30 31
31 32
32 33
33 34
34 35
0 35
0 34
1 34
1 33
2 33
2 32
3 32
3 31
4 31
4 30
5 30
5 7
30 7
30 8
29 8
29 9
28 9
28 10
27 10
27 11
26 11
26 12
25 12
25 13
25 14
24 14
24 15
23 15
23 16
22 16
22 17
21 17
21 18
20 18
      </DataArray>
      <DataArray type="Int32" Name="offsets" format="ascii">
2
4
6
8
10
12
14
16
18
20
22
24
26
28
30
32
34
36
38
40
42
44
46
48
50
52
54
56
58
60
62
64
66
68
70
72
74
76
78
80
82
84
86
88
90
92
94
96
98
100
102
104
106
108
110
112
114
116
118
120
122
124
126
128
130
132
134
136
138
      </DataArray>
      <DataArray type="UInt8" Name="types" format="ascii">
4
4
4
4
4
4
4
4
4
4
4
4
4
4
4
4
4
4
4
4
4
4
4
4
4
4
4
4
4
4
4
4
4
4
4
4
4
4
4
4
4
4
4
4
4
4
4
4
4
4
4
4
4
4
4
4
4
4
4
4
4
4
4
4
4
4
4
4
4
      </DataArray>
    </Cells>
    <PointData>
      <DataArray type="Float64" NumberOfComponents="3" Name="Displacement" format="ascii">
0 0 0
-0.00502759 -0.00101211 0
-0.0140365 -0.00142954 0
-0.0239125 -0.00123316 0
-0.0315303 -0.000398887 0
-0.0333426 0.00730049 0
0.02166 0.0057867 0
0.0215557 -0.00334581 0
0.0177254 -0.186699 0
0.0105697 -0.361429 0
0.00456199 -0.377063 0
-0.00678008 -0.196459 0
-0.0148095 -0.00565788 0
-0.014844 0.00976604 0
0.0278344 -0.00113436 0
0.0285269 -0.00216629 0
0.0229701 -0.00256737 0
0.0142694 -0.00232554 0
0.00554158 -0.0014614 0
0 0 0
0 0 0
0.00564577 0.00038865 0
0.0143764 0.000134572 0
0.0230742 -0.000741296 0
0.0286284 -0.00221506 0
0.027972 -0.00428895 0
0.0367067 -0.195075 0
0.0408859 -0.375854 0
-0.00068767 -0.361271 0
-0.0380171 -0.185568 0
-0.0336861 -0.000308185 0
-0.0314363 0.000971567 0
-0.023824 0.00165588 0
-0.0139497 0.00173731 0
-0.0049359 0.00119034 0
0 0 0
      </DataArray> 
      <DataArray type="Float64" NumberOfComponents="3" Name="Velocity" format="ascii">
0 0 0
0 0 0
0 0 0
0 0 0
0 0 0
0 0 0
0 0 0
0 0 0
0 0 0
0 0 0
0 0 0
0 0 0
0 0 0
0 0 0
0 0 0
0 0 0
0 0 0
0 0 0
0 0 0
0 0 0
0 0 0
0 0 0
0 0 0
0 0 0
0 0 0
0 0 0
0 0 0
0 0 0
0 0 0
0 0 0
0 0 0
0 0 0
0 0 0
0 0 0
0 0 0
0 0 0
      </DataArray> 
      <DataArray type="Float64" NumberOfComponents="3" Name="Acceleration" format="ascii">
0 0 0
0 0 0
0 0 0
0 0 0
0 0 0
0 0 0
0 0 0
0 0 0
0 0 0
0 0 0
0 0 0
0 0 0
0 0 0
0 0 0
0 0 0
0 0 0
0 0 0
0 0 0
0 0 0
0 0 0
0 0 0
0 0 0
0 0 0
0 0 0
0 0 0
0 0 0
0 0 0
0 0 0
0 0 0
0 0 0
0 0 0
0 0 0
0 0 0
0 0 0
0 0 0
0 0 0
      </DataArray> 
    </PointData>
    <CellData>
    </CellData>
  </Piece>
  </UnstructuredGrid>
</VTKFile>
