<?xml version="1.0"?>
<VTKFile type="UnstructuredGrid">
  <UnstructuredGrid>
  <Piece NumberOfPoints="36"  NumberOfCells="69">
    <Points>
      <DataArray type="Float64" NumberOfComponents="3" format="ascii">
0 0 0
-0.00421877 0.999171 0
-0.0116162 1.99887 0
-0.0194843 2.9991 0
-0.0251082 3.99988 0
-0.0254478 5.00394 0
0.00940238 6.00334 0
0.40936 5.99748 0
3.40852 5.87659 0
6.40456 5.76324 0
9.39926 5.76288 0
12.392 5.87446 0
15.3878 5.99502 0
15.7879 6.00659 0
15.8205 4.99931 0
15.8224 3.99836 0
15.8186 2.99795 0
15.8118 1.9981 0
15.8047 0.998786 0
15.8 0 0
15.4 0 0
15.4048 1.00027 0
15.4119 1.99999 0
15.4187 2.99917 0
15.4225 3.99783 0
15.4206 4.99595 0
12.4254 4.87541 0
9.42635 4.76369 0
6.39907 4.76332 0
3.37301 4.87684 0
0.374294 4.99945 0
0.374975 4.00062 0
0.380596 3.00127 0
0.388462 2.00139 0
0.395863 1.00097 0
0.4 0 0
      </DataArray>
    </Points>
    <Cells>
      <DataArray type="Int32" Name="connectivity" format="ascii">
0 1
1 2
2 3
3 4
4 5
5 6
6 7
7 8
8 9
9 10
10 11
11 12
12 13
13 14
14 15
15 16
16 17
17 18
18 19
19 20
20 21
21 22
22 23
23 24
24 25
25 26
26 27
27 28
28 29
29 30
30 31
31 32
32 33
33 34
34 35
0 35
0 34
1 34
1 33
2 33
2 32
3 32
3 31
4 31
4 30
5 30
5 7
30 7
30 8
29 8
29 9
28 9
28 10
27 10
27 11
26 11
26 12
25 12
25 13
25 14
24 14
24 15
23 15
23 16
22 16
22 17
21 17
21 18
20 18
      </DataArray>
      <DataArray type="Int32" Name="offsets" format="ascii">
2
4
6
8
10
12
14
16
18
20
22
24
26
28
30
32
34
36
38
40
42
44
46
48
50
52
54
56
58
60
62
64
66
68
70
72
74
76
78
80
82
84
86
88
90
92
94
96
98
100
102
104
106
108
110
112
114
116
118
120
122
124
126
128
130
132
134
136
138
      </DataArray>
      <DataArray type="UInt8" Name="types" format="ascii">
4
4
4
4
4
4
4
4
4
4
4
4
4
4
4
4
4
4
4
4
4
4
4
4
4
4
4
4
4
4
4
4
4
4
4
4
4
4
4
4
4
4
4
4
4
4
4
4
4
4
4
4
4
4
4
4
4
4
4
4
4
4
4
4
4
4
4
4
4
      </DataArray>
    </Cells>
    <PointData>
      <DataArray type="Float64" NumberOfComponents="3" Name="Displacement" format="ascii">
0 0 0
-0.00421877 -0.000828767 0
-0.0116162 -0.00113486 0
-0.0194843 -0.000904141 0
-0.0251082 -0.000121104 0
-0.0254478 0.00394345 0
0.00940238 0.003336 0
0.00935953 -0.00251905 0
0.00852489 -0.123409 0
0.00455587 -0.236757 0
-0.000738612 -0.237119 0
-0.00804468 -0.125544 0
-0.0121882 -0.00497855 0
-0.0121183 0.0065871 0
0.0204597 -0.000691746 0
0.0224226 -0.00164098 0
0.0186476 -0.00204987 0
0.0118324 -0.00190349 0
0.00468531 -0.00121412 0
0 0 0
0 0 0
0.00477478 0.000271992 0
0.0119233 -9.95451e-06 0
0.0187363 -0.000830201 0
0.0225111 -0.00217327 0
0.0205769 -0.00404574 0
0.0253868 -0.124595 0
0.0263517 -0.236306 0
-0.000925337 -0.23668 0
-0.0269879 -0.123156 0
-0.0257059 -0.000550606 0
-0.0250251 0.000623027 0
-0.0194043 0.00127198 0
-0.0115378 0.00139492 0
-0.00413748 0.000974709 0
0 0 0
      </DataArray> 
      <DataArray type="Float64" NumberOfComponents="3" Name="Velocity" format="ascii">
0 0 0
0 0 0
0 0 0
0 0 0
0 0 0
0 0 0
0 0 0
0 0 0
0 0 0
0 0 0
0 0 0
0 0 0
0 0 0
0 0 0
0 0 0
0 0 0
0 0 0
0 0 0
0 0 0
0 0 0
0 0 0
0 0 0
0 0 0
0 0 0
0 0 0
0 0 0
0 0 0
0 0 0
0 0 0
0 0 0
0 0 0
0 0 0
0 0 0
0 0 0
0 0 0
0 0 0
      </DataArray> 
      <DataArray type="Float64" NumberOfComponents="3" Name="Acceleration" format="ascii">
0 0 0
0 0 0
0 0 0
0 0 0
0 0 0
0 0 0
0 0 0
0 0 0
0 0 0
0 0 0
0 0 0
0 0 0
0 0 0
0 0 0
0 0 0
0 0 0
0 0 0
0 0 0
0 0 0
0 0 0
0 0 0
0 0 0
0 0 0
0 0 0
0 0 0
0 0 0
0 0 0
0 0 0
0 0 0
0 0 0
0 0 0
0 0 0
0 0 0
0 0 0
0 0 0
0 0 0
      </DataArray> 
    </PointData>
    <CellData>
    </CellData>
  </Piece>
  </UnstructuredGrid>
</VTKFile>
