<?xml version="1.0"?>
<VTKFile type="UnstructuredGrid">
  <UnstructuredGrid>
  <Piece NumberOfPoints="36"  NumberOfCells="69">
    <Points>
      <DataArray type="Float64" NumberOfComponents="3" format="ascii">
0 0 0
-0.00335632 0.999382 0
-0.00892937 1.99922 0
-0.0143845 2.99952 0
-0.0173838 4.0003 0
-0.0153173 5.00202 0
0.00802475 6.00175 0
0.408002 5.99745 0
3.40829 5.91252 0
6.40564 5.83426 0
9.40086 5.83433 0
12.3951 5.91104 0
15.3924 5.99562 0
15.7925 6.00315 0
15.8145 4.99963 0
15.8174 3.99877 0
15.815 2.99837 0
15.8097 1.99845 0
15.8039 0.998997 0
15.8 0 0
15.4 0 0
15.404 1.00018 0
15.4098 1.99988 0
15.4151 2.99912 0
15.4174 3.9979 0
15.4146 4.99622 0
12.4179 4.91165 0
9.41788 4.83487 0
6.40084 4.83431 0
3.38431 4.91246 0
0.384462 4.99898 0
0.382688 4.00011 0
0.385687 3.00078 0
0.391141 2.00098 0
0.396715 1.00073 0
0.4 0 0
      </DataArray>
    </Points>
    <Cells>
      <DataArray type="Int32" Name="connectivity" format="ascii">
0 1
1 2
2 3
3 4
4 5
5 6
6 7
7 8
8 9
9 10
10 11
11 12
12 13
13 14
14 15
15 16
16 17
17 18
18 19
19 20
20 21
21 22
22 23
23 24
24 25
25 26
26 27
27 28
28 29
29 30
30 31
31 32
32 33
33 34
34 35
0 35
0 34
1 34
1 33
2 33
2 32
3 32
3 31
4 31
4 30
5 30
5 7
30 7
30 8
29 8
29 9
28 9
28 10
27 10
27 11
26 11
26 12
25 12
25 13
25 14
24 14
24 15
23 15
23 16
22 16
22 17
21 17
21 18
20 18
      </DataArray>
      <DataArray type="Int32" Name="offsets" format="ascii">
2
4
6
8
10
12
14
16
18
20
22
24
26
28
30
32
34
36
38
40
42
44
46
48
50
52
54
56
58
60
62
64
66
68
70
72
74
76
78
80
82
84
86
88
90
92
94
96
98
100
102
104
106
108
110
112
114
116
118
120
122
124
126
128
130
132
134
136
138
      </DataArray>
      <DataArray type="UInt8" Name="types" format="ascii">
4
4
4
4
4
4
4
4
4
4
4
4
4
4
4
4
4
4
4
4
4
4
4
4
4
4
4
4
4
4
4
4
4
4
4
4
4
4
4
4
4
4
4
4
4
4
4
4
4
4
4
4
4
4
4
4
4
4
4
4
4
4
4
4
4
4
4
4
4
      </DataArray>
    </Cells>
    <PointData>
      <DataArray type="Float64" NumberOfComponents="3" Name="Displacement" format="ascii">
0 0 0
-0.00335632 -0.000618352 0
-0.00892937 -0.000780418 0
-0.0143845 -0.000476613 0
-0.0173838 0.000299847 0
-0.0153173 0.00202455 0
0.00802475 0.00175209 0
0.00800164 -0.00254748 0
0.00828944 -0.0874828 0
0.00563692 -0.165738 0
0.000858106 -0.165666 0
-0.00486537 -0.0889644 0
-0.00763187 -0.00438224 0
-0.00749138 0.003149 0
0.0145305 -0.00036923 0
0.017364 -0.00122819 0
0.0149909 -0.00162678 0
0.00973684 -0.00154947 0
0.0039366 -0.00100289 0
0 0 0
0 0 0
0.00401303 0.000175768 0
0.00981393 -0.000123028 0
0.0150665 -0.000884982 0
0.0174408 -0.00210052 0
0.0146286 -0.00377812 0
0.0179403 -0.0883521 0
0.0178804 -0.165134 0
0.000842837 -0.165687 0
-0.0156852 -0.0875403 0
-0.0155385 -0.00101573 0
-0.0173118 0.000110991 0
-0.0143126 0.000775697 0
-0.0088588 0.000984608 0
-0.00328465 0.000728773 0
0 0 0
      </DataArray> 
      <DataArray type="Float64" NumberOfComponents="3" Name="Velocity" format="ascii">
0 0 0
0 0 0
0 0 0
0 0 0
0 0 0
0 0 0
0 0 0
0 0 0
0 0 0
0 0 0
0 0 0
0 0 0
0 0 0
0 0 0
0 0 0
0 0 0
0 0 0
0 0 0
0 0 0
0 0 0
0 0 0
0 0 0
0 0 0
0 0 0
0 0 0
0 0 0
0 0 0
0 0 0
0 0 0
0 0 0
0 0 0
0 0 0
0 0 0
0 0 0
0 0 0
0 0 0
      </DataArray> 
      <DataArray type="Float64" NumberOfComponents="3" Name="Acceleration" format="ascii">
0 0 0
0 0 0
0 0 0
0 0 0
0 0 0
0 0 0
0 0 0
0 0 0
0 0 0
0 0 0
0 0 0
0 0 0
0 0 0
0 0 0
0 0 0
0 0 0
0 0 0
0 0 0
0 0 0
0 0 0
0 0 0
0 0 0
0 0 0
0 0 0
0 0 0
0 0 0
0 0 0
0 0 0
0 0 0
0 0 0
0 0 0
0 0 0
0 0 0
0 0 0
0 0 0
0 0 0
      </DataArray> 
    </PointData>
    <CellData>
    </CellData>
  </Piece>
  </UnstructuredGrid>
</VTKFile>
