<?xml version="1.0"?>
<VTKFile type="UnstructuredGrid">
  <UnstructuredGrid>
  <Piece NumberOfPoints="36"  NumberOfCells="69">
    <Points>
      <DataArray type="Float64" NumberOfComponents="3" format="ascii">
0 0 0
-0.000677317 0.99987 0
-0.00168911 1.99986 0
-0.00245764 2.99996 0
-0.00240532 4.00017 0
-0.000884488 5.0005 0
0.00363152 6.00049 0
0.403629 5.9991 0
3.40397 5.98056 0
6.4032 5.96555 0
9.40134 5.96539 0
12.3994 5.98007 0
15.3986 5.99877 0
15.7987 6.00021 0
15.803 4.99989 0
15.8039 3.99968 0
15.8035 2.99959 0
15.8024 1.99961 0
15.801 0.999747 0
15.8 0 0
15.4 0 0
15.401 1.00001 0
15.4024 1.99991 0
15.4036 2.99969 0
15.404 3.99935 0
15.403 4.9989 0
12.4036 4.9802 0
9.40301 4.96552 0
6.40128 4.96556 0
3.3996 4.98044 0
0.399061 4.99944 0
0.397613 3.99978 0
0.397561 3.00001 0
0.398329 2.00012 0
0.399341 1.00012 0
0.4 0 0
      </DataArray>
    </Points>
    <Cells>
      <DataArray type="Int32" Name="connectivity" format="ascii">
0 1
1 2
2 3
3 4
4 5
5 6
6 7
7 8
8 9
9 10
10 11
11 12
12 13
13 14
14 15
15 16
16 17
17 18
18 19
19 20
20 21
21 22
22 23
23 24
24 25
25 26
26 27
27 28
28 29
29 30
30 31
31 32
32 33
33 34
34 35
0 35
0 34
1 34
1 33
2 33
2 32
3 32
3 31
4 31
4 30
5 30
5 7
30 7
30 8
29 8
29 9
28 9
28 10
27 10
27 11
26 11
26 12
25 12
25 13
25 14
24 14
24 15
23 15
23 16
22 16
22 17
21 17
21 18
20 18
      </DataArray>
      <DataArray type="Int32" Name="offsets" format="ascii">
2
4
6
8
10
12
14
16
18
20
22
24
26
28
30
32
34
36
38
40
42
44
46
48
50
52
54
56
58
60
62
64
66
68
70
72
74
76
78
80
82
84
86
88
90
92
94
96
98
100
102
104
106
108
110
112
114
116
118
120
122
124
126
128
130
132
134
136
138
      </DataArray>
      <DataArray type="UInt8" Name="types" format="ascii">
4
4
4
4
4
4
4
4
4
4
4
4
4
4
4
4
4
4
4
4
4
4
4
4
4
4
4
4
4
4
4
4
4
4
4
4
4
4
4
4
4
4
4
4
4
4
4
4
4
4
4
4
4
4
4
4
4
4
4
4
4
4
4
4
4
4
4
4
4
      </DataArray>
    </Cells>
    <PointData>
      <DataArray type="Float64" NumberOfComponents="3" Name="Displacement" format="ascii">
0 0 0
-0.000677317 -0.000129632 0
-0.00168911 -0.000144117 0
-0.00245764 -4.30869e-05 0
-0.00240532 0.000173228 0
-0.000884488 0.000502948 0
0.00363152 0.00049275 0
0.0036291 -0.000899932 0
0.00396906 -0.0194404 0
0.00319927 -0.0344488 0
0.00133563 -0.0346132 0
-0.000565024 -0.0199299 0
-0.00136057 -0.00123262 0
-0.00131129 0.000205882 0
0.00296557 -0.000109028 0
0.0039367 -0.000317958 0
0.00354646 -0.000412154 0
0.00237183 -0.00039031 0
0.000990783 -0.000252659 0
0 0 0
0 0 0
0.00100936 1.13496e-05 0
0.00239042 -9.32739e-05 0
0.00356498 -0.000313151 0
0.00395539 -0.000647742 0
0.00298559 -0.00109768 0
0.00356957 -0.0197959 0
0.00300527 -0.0344839 0
0.00128129 -0.0344443 0
-0.000404105 -0.0195559 0
-0.000939287 -0.000557821 0
-0.00238729 -0.000215007 0
-0.00243926 1.15648e-05 0
-0.00167074 0.000123033 0
-0.000658948 0.000119298 0
0 0 0
      </DataArray> 
      <DataArray type="Float64" NumberOfComponents="3" Name="Velocity" format="ascii">
0 0 0
0 0 0
0 0 0
0 0 0
0 0 0
0 0 0
0 0 0
0 0 0
0 0 0
0 0 0
0 0 0
0 0 0
0 0 0
0 0 0
0 0 0
0 0 0
0 0 0
0 0 0
0 0 0
0 0 0
0 0 0
0 0 0
0 0 0
0 0 0
0 0 0
0 0 0
0 0 0
0 0 0
0 0 0
0 0 0
0 0 0
0 0 0
0 0 0
0 0 0
0 0 0
0 0 0
      </DataArray> 
      <DataArray type="Float64" NumberOfComponents="3" Name="Acceleration" format="ascii">
0 0 0
0 0 0
0 0 0
0 0 0
0 0 0
0 0 0
0 0 0
0 0 0
0 0 0
0 0 0
0 0 0
0 0 0
0 0 0
0 0 0
0 0 0
0 0 0
0 0 0
0 0 0
0 0 0
0 0 0
0 0 0
0 0 0
0 0 0
0 0 0
0 0 0
0 0 0
0 0 0
0 0 0
0 0 0
0 0 0
0 0 0
0 0 0
0 0 0
0 0 0
0 0 0
0 0 0
      </DataArray> 
    </PointData>
    <CellData>
    </CellData>
  </Piece>
  </UnstructuredGrid>
</VTKFile>
