<?xml version="1.0"?>
<VTKFile type="UnstructuredGrid">
  <UnstructuredGrid>
  <Piece NumberOfPoints="36"  NumberOfCells="69">
    <Points>
      <DataArray type="Float64" NumberOfComponents="3" format="ascii">
0 0 0
-0.00276571 0.999519 0
-0.00712213 1.99944 0
-0.0110035 2.99978 0
-0.012343 4.00054 0
-0.00883068 5.00169 0
0.00761325 6.00156 0
0.407592 5.99739 0
3.40832 5.93417 0
6.40626 5.87721 0
9.40181 5.87704 0
12.3969 5.93273 0
15.3947 5.99595 0
15.7949 6.00094 0
15.8102 4.99986 0
15.8137 3.99907 0
15.8123 2.99868 0
15.8082 1.9987 0
15.8034 0.999149 0
15.8 0 0
15.4 0 0
15.4035 1.0001 0
15.4083 1.99979 0
15.4124 2.99907 0
15.4138 3.99794 0
15.4103 4.9964 0
12.4129 4.93319 0
9.4124 4.87745 0
6.40173 4.87725 0
3.39131 4.93399 0
0.390966 4.9987 0
0.38772 3.99978 0
0.389061 3.00045 0
0.392942 2.00071 0
0.397299 1.00056 0
0.4 0 0
      </DataArray>
    </Points>
    <Cells>
      <DataArray type="Int32" Name="connectivity" format="ascii">
0 1
1 2
2 3
3 4
4 5
5 6
6 7
7 8
8 9
9 10
10 11
11 12
12 13
13 14
14 15
15 16
16 17
17 18
18 19
19 20
20 21
21 22
22 23
23 24
24 25
25 26
26 27
27 28
28 29
29 30
30 31
31 32
32 33
33 34
34 35
0 35
0 34
1 34
1 33
2 33
2 32
3 32
3 31
4 31
4 30
5 30
5 7
30 7
30 8
29 8
29 9
28 9
28 10
27 10
27 11
26 11
26 12
25 12
25 13
25 14
24 14
24 15
23 15
23 16
22 16
22 17
21 17
21 18
20 18
      </DataArray>
      <DataArray type="Int32" Name="offsets" format="ascii">
2
4
6
8
10
12
14
16
18
20
22
24
26
28
30
32
34
36
38
40
42
44
46
48
50
52
54
56
58
60
62
64
66
68
70
72
74
76
78
80
82
84
86
88
90
92
94
96
98
100
102
104
106
108
110
112
114
116
118
120
122
124
126
128
130
132
134
136
138
      </DataArray>
      <DataArray type="UInt8" Name="types" format="ascii">
4
4
4
4
4
4
4
4
4
4
4
4
4
4
4
4
4
4
4
4
4
4
4
4
4
4
4
4
4
4
4
4
4
4
4
4
4
4
4
4
4
4
4
4
4
4
4
4
4
4
4
4
4
4
4
4
4
4
4
4
4
4
4
4
4
4
4
4
4
      </DataArray>
    </Cells>
    <PointData>
      <DataArray type="Float64" NumberOfComponents="3" Name="Displacement" format="ascii">
0 0 0
-0.00276571 -0.000481104 0
-0.00712213 -0.000555585 0
-0.0110035 -0.000216878 0
-0.012343 0.000536999 0
-0.00883068 0.00169056 0
0.00761325 0.00155535 0
0.00759156 -0.00261017 0
0.00831973 -0.0658311 0
0.00625856 -0.122791 0
0.00180607 -0.122958 0
-0.00314317 -0.067267 0
-0.00529855 -0.0040494 0
-0.00513696 0.000943604 0
0.0102192 -0.000141783 0
0.0136943 -0.000934964 0
0.0123428 -0.00132482 0
0.00822163 -0.00129576 0
0.0033964 -0.000850959 0
0 0 0
0 0 0
0.0034636 0.00010448 0
0.0082891 -0.000209059 0
0.0124094 -0.00093193 0
0.013763 -0.00205815 0
0.0103048 -0.00359716 0
0.0128947 -0.0668112 0
0.0123997 -0.122552 0
0.00172584 -0.122755 0
-0.00868716 -0.0660086 0
-0.00903414 -0.00130164 0
-0.0122802 -0.000218604 0
-0.0109389 0.000449196 0
-0.00705829 0.000711409 0
-0.00270149 0.00056366 0
0 0 0
      </DataArray> 
      <DataArray type="Float64" NumberOfComponents="3" Name="Velocity" format="ascii">
0 0 0
0 0 0
0 0 0
0 0 0
0 0 0
0 0 0
0 0 0
0 0 0
0 0 0
0 0 0
0 0 0
0 0 0
0 0 0
0 0 0
0 0 0
0 0 0
0 0 0
0 0 0
0 0 0
0 0 0
0 0 0
0 0 0
0 0 0
0 0 0
0 0 0
0 0 0
0 0 0
0 0 0
0 0 0
0 0 0
0 0 0
0 0 0
0 0 0
0 0 0
0 0 0
0 0 0
      </DataArray> 
      <DataArray type="Float64" NumberOfComponents="3" Name="Acceleration" format="ascii">
0 0 0
0 0 0
0 0 0
0 0 0
0 0 0
0 0 0
0 0 0
0 0 0
0 0 0
0 0 0
0 0 0
0 0 0
0 0 0
0 0 0
0 0 0
0 0 0
0 0 0
0 0 0
0 0 0
0 0 0
0 0 0
0 0 0
0 0 0
0 0 0
0 0 0
0 0 0
0 0 0
0 0 0
0 0 0
0 0 0
0 0 0
0 0 0
0 0 0
0 0 0
0 0 0
0 0 0
      </DataArray> 
    </PointData>
    <CellData>
    </CellData>
  </Piece>
  </UnstructuredGrid>
</VTKFile>
