<?xml version="1.0"?>
<VTKFile type="UnstructuredGrid">
  <UnstructuredGrid>
  <Piece NumberOfPoints="36"  NumberOfCells="69">
    <Points>
      <DataArray type="Float64" NumberOfComponents="3" format="ascii">
0 0 0
-0.000794457 0.999848 0
-0.00198039 1.99983 0
-0.00287926 2.99995 0
-0.00281274 4.0002 0
-0.00102047 5.00059 0
0.00428853 6.00058 0
0.404285 5.99894 0
3.40467 5.97715 0
6.40376 5.95951 0
9.40157 5.95931 0
12.3993 5.97657 0
15.3984 5.99855 0
15.7984 6.00024 0
15.8035 4.99987 0
15.8046 3.99963 0
15.8042 2.99952 0
15.8028 1.99954 0
15.8012 0.999703 0
15.8 0 0
15.4 0 0
15.4012 1.00001 0
15.4028 1.99989 0
15.4042 2.99963 0
15.4046 3.99924 0
15.4035 4.99871 0
12.4042 4.97673 0
9.40353 4.95947 0
6.40151 4.95951 0
3.39953 4.97701 0
0.398915 4.99934 0
0.397208 3.99975 0
0.397142 3.00001 0
0.398041 2.00014 0
0.399227 1.00014 0
0.4 0 0
      </DataArray>
    </Points>
    <Cells>
      <DataArray type="Int32" Name="connectivity" format="ascii">
0 1
1 2
2 3
3 4
4 5
5 6
6 7
7 8
8 9
9 10
10 11
11 12
12 13
13 14
14 15
15 16
16 17
17 18
18 19
19 20
20 21
21 22
22 23
23 24
24 25
25 26
26 27
27 28
28 29
29 30
30 31
31 32
32 33
33 34
34 35
0 35
0 34
1 34
1 33
2 33
2 32
3 32
3 31
4 31
4 30
5 30
5 7
30 7
30 8
29 8
29 9
28 9
28 10
27 10
27 11
26 11
26 12
25 12
25 13
25 14
24 14
24 15
23 15
23 16
22 16
22 17
21 17
21 18
20 18
      </DataArray>
      <DataArray type="Int32" Name="offsets" format="ascii">
2
4
6
8
10
12
14
16
18
20
22
24
26
28
30
32
34
36
38
40
42
44
46
48
50
52
54
56
58
60
62
64
66
68
70
72
74
76
78
80
82
84
86
88
90
92
94
96
98
100
102
104
106
108
110
112
114
116
118
120
122
124
126
128
130
132
134
136
138
      </DataArray>
      <DataArray type="UInt8" Name="types" format="ascii">
4
4
4
4
4
4
4
4
4
4
4
4
4
4
4
4
4
4
4
4
4
4
4
4
4
4
4
4
4
4
4
4
4
4
4
4
4
4
4
4
4
4
4
4
4
4
4
4
4
4
4
4
4
4
4
4
4
4
4
4
4
4
4
4
4
4
4
4
4
      </DataArray>
    </Cells>
    <PointData>
      <DataArray type="Float64" NumberOfComponents="3" Name="Displacement" format="ascii">
0 0 0
-0.000794457 -0.000152015 0
-0.00198039 -0.000168873 0
-0.00287926 -5.0066e-05 0
-0.00281274 0.000204081 0
-0.00102047 0.00059097 0
0.00428853 0.000576877 0
0.00428518 -0.00106089 0
0.0046725 -0.0228544 0
0.00375984 -0.0404928 0
0.00156912 -0.040685 0
-0.000672368 -0.0234283 0
-0.00161957 -0.00145145 0
-0.00156223 0.000240428 0
0.00346643 -0.000127479 0
0.00461287 -0.000372895 0
0.0041592 -0.000483736 0
0.00278291 -0.000458192 0
0.00116289 -0.000296579 0
0 0 0
0 0 0
0.00118472 1.29567e-05 0
0.00280477 -0.00011038 0
0.00418096 -0.000369019 0
0.00463486 -0.000762216 0
0.00349026 -0.00129085 0
0.00418778 -0.0232691 0
0.00353135 -0.0405322 0
0.00150523 -0.0404865 0
-0.000467946 -0.0229881 0
-0.0010852 -0.000656869 0
-0.00279165 -0.000253857 0
-0.0028577 1.24806e-05 0
-0.00195885 0.000143719 0
-0.000772906 0.000139724 0
0 0 0
      </DataArray> 
      <DataArray type="Float64" NumberOfComponents="3" Name="Velocity" format="ascii">
0 0 0
0 0 0
0 0 0
0 0 0
0 0 0
0 0 0
0 0 0
0 0 0
0 0 0
0 0 0
0 0 0
0 0 0
0 0 0
0 0 0
0 0 0
0 0 0
0 0 0
0 0 0
0 0 0
0 0 0
0 0 0
0 0 0
0 0 0
0 0 0
0 0 0
0 0 0
0 0 0
0 0 0
0 0 0
0 0 0
0 0 0
0 0 0
0 0 0
0 0 0
0 0 0
0 0 0
      </DataArray> 
      <DataArray type="Float64" NumberOfComponents="3" Name="Acceleration" format="ascii">
0 0 0
0 0 0
0 0 0
0 0 0
0 0 0
0 0 0
0 0 0
0 0 0
0 0 0
0 0 0
0 0 0
0 0 0
0 0 0
0 0 0
0 0 0
0 0 0
0 0 0
0 0 0
0 0 0
0 0 0
0 0 0
0 0 0
0 0 0
0 0 0
0 0 0
0 0 0
0 0 0
0 0 0
0 0 0
0 0 0
0 0 0
0 0 0
0 0 0
0 0 0
0 0 0
0 0 0
      </DataArray> 
    </PointData>
    <CellData>
    </CellData>
  </Piece>
  </UnstructuredGrid>
</VTKFile>
