<?xml version="1.0"?>
<VTKFile type="UnstructuredGrid">
  <UnstructuredGrid>
  <Piece NumberOfPoints="36"  NumberOfCells="69">
    <Points>
      <DataArray type="Float64" NumberOfComponents="3" format="ascii">
0 0 0
-0.00213754 0.999633 0
-0.00535844 1.9996 0
-0.00795017 2.99992 0
-0.00820061 4.00057 0
-0.00419268 5.00156 0
0.00878389 6.00147 0
0.408764 5.99753 0
3.40951 5.946 0
6.40767 5.90109 0
9.40344 5.90053 0
12.3989 5.9446 0
15.3969 5.99662 0
15.7971 6.00066 0
15.8094 4.99976 0
15.812 3.99912 0
15.8106 2.99883 0
15.807 1.99887 0
15.8029 0.999269 0
15.8 0 0
15.4 0 0
15.4029 1.00008 0
15.4071 1.99982 0
15.4107 2.99922 0
15.412 3.99828 0
15.4094 4.997 0
12.4115 4.94498 0
9.41066 4.90087 0
6.40325 4.90112 0
3.39628 4.94579 0
0.395634 4.99861 0
0.391851 3.99957 0
0.392104 3.00019 0
0.394695 2.00047 0
0.397916 1.00041 0
0.4 0 0
      </DataArray>
    </Points>
    <Cells>
      <DataArray type="Int32" Name="connectivity" format="ascii">
0 1
1 2
2 3
3 4
4 5
5 6
6 7
7 8
8 9
9 10
10 11
11 12
12 13
13 14
14 15
15 16
16 17
17 18
18 19
19 20
20 21
21 22
22 23
23 24
24 25
25 26
26 27
27 28
28 29
29 30
30 31
31 32
32 33
33 34
34 35
0 35
0 34
1 34
1 33
2 33
2 32
3 32
3 31
4 31
4 30
5 30
5 7
30 7
30 8
29 8
29 9
28 9
28 10
27 10
27 11
26 11
26 12
25 12
25 13
25 14
24 14
24 15
23 15
23 16
22 16
22 17
21 17
21 18
20 18
      </DataArray>
      <DataArray type="Int32" Name="offsets" format="ascii">
2
4
6
8
10
12
14
16
18
20
22
24
26
28
30
32
34
36
38
40
42
44
46
48
50
52
54
56
58
60
62
64
66
68
70
72
74
76
78
80
82
84
86
88
90
92
94
96
98
100
102
104
106
108
110
112
114
116
118
120
122
124
126
128
130
132
134
136
138
      </DataArray>
      <DataArray type="UInt8" Name="types" format="ascii">
4
4
4
4
4
4
4
4
4
4
4
4
4
4
4
4
4
4
4
4
4
4
4
4
4
4
4
4
4
4
4
4
4
4
4
4
4
4
4
4
4
4
4
4
4
4
4
4
4
4
4
4
4
4
4
4
4
4
4
4
4
4
4
4
4
4
4
4
4
      </DataArray>
    </Cells>
    <PointData>
      <DataArray type="Float64" NumberOfComponents="3" Name="Displacement" format="ascii">
0 0 0
-0.00213754 -0.000367159 0
-0.00535844 -0.000395514 0
-0.00795017 -8.1265e-05 0
-0.00820061 0.000574889 0
-0.00419268 0.00155871 0
0.00878389 0.00147451 0
0.0087644 -0.00247393 0
0.00951409 -0.0539967 0
0.00766842 -0.0989078 0
0.00344431 -0.0994727 0
-0.00110195 -0.0554039 0
-0.00307609 -0.00337757 0
-0.00294043 0.000655176 0
0.00937838 -0.000242917 0
0.011968 -0.000877423 0
0.0106093 -0.00117496 0
0.00700981 -0.00112542 0
0.00288351 -0.000731465 0
0 0 0
0 0 0
0.00293915 8.42779e-05 0
0.00706569 -0.000177839 0
0.0106645 -0.000780194 0
0.0120243 -0.00171808 0
0.00944563 -0.00299698 0
0.0114646 -0.0550245 0
0.0106635 -0.0991288 0
0.003252 -0.0988798 0
-0.00371869 -0.0542076 0
-0.00436631 -0.00138891 0
-0.00814912 -0.00042565 0
-0.00789628 0.000190177 0
-0.00530481 0.000467749 0
-0.00208381 0.000405567 0
0 0 0
      </DataArray> 
      <DataArray type="Float64" NumberOfComponents="3" Name="Velocity" format="ascii">
0 0 0
0 0 0
0 0 0
0 0 0
0 0 0
0 0 0
0 0 0
0 0 0
0 0 0
0 0 0
0 0 0
0 0 0
0 0 0
0 0 0
0 0 0
0 0 0
0 0 0
0 0 0
0 0 0
0 0 0
0 0 0
0 0 0
0 0 0
0 0 0
0 0 0
0 0 0
0 0 0
0 0 0
0 0 0
0 0 0
0 0 0
0 0 0
0 0 0
0 0 0
0 0 0
0 0 0
      </DataArray> 
      <DataArray type="Float64" NumberOfComponents="3" Name="Acceleration" format="ascii">
0 0 0
0 0 0
0 0 0
0 0 0
0 0 0
0 0 0
0 0 0
0 0 0
0 0 0
0 0 0
0 0 0
0 0 0
0 0 0
0 0 0
0 0 0
0 0 0
0 0 0
0 0 0
0 0 0
0 0 0
0 0 0
0 0 0
0 0 0
0 0 0
0 0 0
0 0 0
0 0 0
0 0 0
0 0 0
0 0 0
0 0 0
0 0 0
0 0 0
0 0 0
0 0 0
0 0 0
      </DataArray> 
    </PointData>
    <CellData>
    </CellData>
  </Piece>
  </UnstructuredGrid>
</VTKFile>
