<?xml version="1.0"?>
<VTKFile type="UnstructuredGrid">
  <UnstructuredGrid>
  <Piece NumberOfPoints="36"  NumberOfCells="69">
    <Points>
      <DataArray type="Float64" NumberOfComponents="3" format="ascii">
0 0 0
-0.00826847 0.998914 0
-0.0206417 1.99848 0
-0.0336566 2.99872 0
-0.0438385 3.99969 0
-0.0471016 5.01285 0
0.0389791 6.00914 0
0.438724 5.99485 0
3.42771 5.71526 0
6.41321 5.44605 0
9.406 5.40787 0
12.3854 5.69419 0
15.3682 5.99264 0
15.7679 6.01447 0
15.8273 4.999 0
15.8293 3.99781 0
15.8242 2.99731 0
15.8152 1.99753 0
15.806 0.998433 0
15.8 0 0
15.4 0 0
15.4061 1.00036 0
15.4154 2.00002 0
15.4243 2.99899 0
15.4294 3.9973 0
15.4275 4.99494 0
12.4453 4.69649 0
9.45745 4.40992 0
6.39342 4.4464 0
3.34082 4.71855 0
0.352369 5.00035 0
0.356262 4.00184 0
0.366433 3.00269 0
0.379444 2.00288 0
0.391825 1.00238 0
0.4 0 0
      </DataArray>
    </Points>
    <Cells>
      <DataArray type="Int32" Name="connectivity" format="ascii">
0 1
1 2
2 3
3 4
4 5
5 6
6 7
7 8
8 9
9 10
10 11
11 12
12 13
13 14
14 15
15 16
16 17
17 18
18 19
19 20
20 21
21 22
22 23
23 24
24 25
25 26
26 27
27 28
28 29
29 30
30 31
31 32
32 33
33 34
34 35
0 35
0 34
1 34
1 33
2 33
2 32
3 32
3 31
4 31
4 30
5 30
5 7
30 7
30 8
29 8
29 9
28 9
28 10
27 10
27 11
26 11
26 12
25 12
25 13
25 14
24 14
24 15
23 15
23 16
22 16
22 17
21 17
21 18
20 18
      </DataArray>
      <DataArray type="Int32" Name="offsets" format="ascii">
2
4
6
8
10
12
14
16
18
20
22
24
26
28
30
32
34
36
38
40
42
44
46
48
50
52
54
56
58
60
62
64
66
68
70
72
74
76
78
80
82
84
86
88
90
92
94
96
98
100
102
104
106
108
110
112
114
116
118
120
122
124
126
128
130
132
134
136
138
      </DataArray>
      <DataArray type="UInt8" Name="types" format="ascii">
4
4
4
4
4
4
4
4
4
4
4
4
4
4
4
4
4
4
4
4
4
4
4
4
4
4
4
4
4
4
4
4
4
4
4
4
4
4
4
4
4
4
4
4
4
4
4
4
4
4
4
4
4
4
4
4
4
4
4
4
4
4
4
4
4
4
4
4
4
      </DataArray>
    </Cells>
    <PointData>
      <DataArray type="Float64" NumberOfComponents="3" Name="Displacement" format="ascii">
0 0 0
-0.00826847 -0.0010859 0
-0.0206417 -0.00152217 0
-0.0336566 -0.00127573 0
-0.0438385 -0.000310757 0
-0.0471016 0.0128478 0
0.0389791 0.00913601 0
0.038724 -0.00514546 0
0.0277146 -0.284741 0
0.0132052 -0.55395 0
0.00599874 -0.592132 0
-0.0146037 -0.305813 0
-0.0318069 -0.00735844 0
-0.0321044 0.0144667 0
0.0272859 -0.00100394 0
0.0293252 -0.00219151 0
0.0241673 -0.00268851 0
0.015244 -0.00247328 0
0.00600293 -0.00156714 0
0 0 0
0 0 0
0.00611803 0.000364327 0
0.0153617 1.81834e-05 0
0.0242815 -0.001013 0
0.0294382 -0.00270302 0
0.0274564 -0.00506044 0
0.0453213 -0.303507 0
0.057452 -0.590082 0
-0.00657834 -0.553597 0
-0.0591814 -0.281449 0
-0.0476313 0.000345489 0
-0.043738 0.00184212 0
-0.0335667 0.0026923 0
-0.0205555 0.00288334 0
-0.00817478 0.00237695 0
0 0 0
      </DataArray> 
      <DataArray type="Float64" NumberOfComponents="3" Name="Velocity" format="ascii">
0 0 0
0 0 0
0 0 0
0 0 0
0 0 0
0 0 0
0 0 0
0 0 0
0 0 0
0 0 0
0 0 0
0 0 0
0 0 0
0 0 0
0 0 0
0 0 0
0 0 0
0 0 0
0 0 0
0 0 0
0 0 0
0 0 0
0 0 0
0 0 0
0 0 0
0 0 0
0 0 0
0 0 0
0 0 0
0 0 0
0 0 0
0 0 0
0 0 0
0 0 0
0 0 0
0 0 0
      </DataArray> 
      <DataArray type="Float64" NumberOfComponents="3" Name="Acceleration" format="ascii">
0 0 0
0 0 0
0 0 0
0 0 0
0 0 0
0 0 0
0 0 0
0 0 0
0 0 0
0 0 0
0 0 0
0 0 0
0 0 0
0 0 0
0 0 0
0 0 0
0 0 0
0 0 0
0 0 0
0 0 0
0 0 0
0 0 0
0 0 0
0 0 0
0 0 0
0 0 0
0 0 0
0 0 0
0 0 0
0 0 0
0 0 0
0 0 0
0 0 0
0 0 0
0 0 0
0 0 0
      </DataArray> 
    </PointData>
    <CellData>
    </CellData>
  </Piece>
  </UnstructuredGrid>
</VTKFile>
