<?xml version="1.0"?>
<VTKFile type="UnstructuredGrid">
  <UnstructuredGrid>
  <Piece NumberOfPoints="36"  NumberOfCells="69">
    <Points>
      <DataArray type="Float64" NumberOfComponents="3" format="ascii">
0 0 0
-0.000239913 0.999954 0
-0.00059923 1.99995 0
-0.000874292 2.99998 0
-0.000861461 4.00006 0
-0.000332064 5.00018 0
0.00125431 6.00018 0
0.401254 5.99969 0
3.40139 5.99317 0
6.40113 5.98789 0
9.40047 5.98783 0
12.3998 5.993 0
15.3995 5.99957 0
15.7996 6.00007 0
15.8011 4.99996 0
15.8014 3.99989 0
15.8013 2.99985 0
15.8008 1.99986 0
15.8004 0.999911 0
15.8 0 0
15.4 0 0
15.4004 1 0
15.4008 1.99997 0
15.4013 2.99989 0
15.4014 3.99977 0
15.4011 4.99961 0
12.4013 4.99304 0
9.40106 4.98788 0
6.40045 4.98789 0
3.39985 4.99313 0
0.399649 4.99981 0
0.399145 3.99993 0
0.399132 3.00001 0
0.399407 2.00004 0
0.399767 1.00004 0
0.4 0 0
      </DataArray>
    </Points>
    <Cells>
      <DataArray type="Int32" Name="connectivity" format="ascii">
0 1
1 2
2 3
3 4
4 5
5 6
6 7
7 8
8 9
9 10
10 11
11 12
12 13
13 14
14 15
15 16
16 17
17 18
18 19
19 20
20 21
21 22
22 23
23 24
24 25
25 26
26 27
27 28
28 29
29 30
30 31
31 32
32 33
33 34
34 35
0 35
0 34
1 34
1 33
2 33
2 32
3 32
3 31
4 31
4 30
5 30
5 7
30 7
30 8
29 8
29 9
28 9
28 10
27 10
27 11
26 11
26 12
25 12
25 13
25 14
24 14
24 15
23 15
23 16
22 16
22 17
21 17
21 18
20 18
      </DataArray>
      <DataArray type="Int32" Name="offsets" format="ascii">
2
4
6
8
10
12
14
16
18
20
22
24
26
28
30
32
34
36
38
40
42
44
46
48
50
52
54
56
58
60
62
64
66
68
70
72
74
76
78
80
82
84
86
88
90
92
94
96
98
100
102
104
106
108
110
112
114
116
118
120
122
124
126
128
130
132
134
136
138
      </DataArray>
      <DataArray type="UInt8" Name="types" format="ascii">
4
4
4
4
4
4
4
4
4
4
4
4
4
4
4
4
4
4
4
4
4
4
4
4
4
4
4
4
4
4
4
4
4
4
4
4
4
4
4
4
4
4
4
4
4
4
4
4
4
4
4
4
4
4
4
4
4
4
4
4
4
4
4
4
4
4
4
4
4
      </DataArray>
    </Cells>
    <PointData>
      <DataArray type="Float64" NumberOfComponents="3" Name="Displacement" format="ascii">
0 0 0
-0.000239913 -4.59558e-05 0
-0.00059923 -5.12305e-05 0
-0.000874292 -1.57776e-05 0
-0.000861461 6.03756e-05 0
-0.000332064 0.000176998 0
0.00125431 0.00017574 0
0.00125401 -0.000312888 0
0.00138707 -0.00682846 0
0.00112519 -0.0121068 0
0.000470336 -0.0121656 0
-0.000189483 -0.00700217 0
-0.000455718 -0.000430343 0
-0.000437748 7.4097e-05 0
0.00106372 -3.90616e-05 0
0.00139957 -0.00011267 0
0.00125686 -0.000145646 0
0.000839142 -0.000137827 0
0.000350113 -8.92453e-05 0
0 0 0
0 0 0
0.000356641 4.4145e-06 0
0.000845672 -3.19561e-05 0
0.00126338 -0.000109022 0
0.00140611 -0.000226715 0
0.00107042 -0.000385113 0
0.00126341 -0.00695706 0
0.0010575 -0.0121211 0
0.000451253 -0.0121063 0
-0.000149826 -0.00687138 0
-0.000350975 -0.000194738 0
-0.000855 -7.4311e-05 0
-0.000867789 5.30118e-06 0
-0.000592729 4.42381e-05 0
-0.000233411 4.2486e-05 0
0 0 0
      </DataArray> 
      <DataArray type="Float64" NumberOfComponents="3" Name="Velocity" format="ascii">
0 0 0
0 0 0
0 0 0
0 0 0
0 0 0
0 0 0
0 0 0
0 0 0
0 0 0
0 0 0
0 0 0
0 0 0
0 0 0
0 0 0
0 0 0
0 0 0
0 0 0
0 0 0
0 0 0
0 0 0
0 0 0
0 0 0
0 0 0
0 0 0
0 0 0
0 0 0
0 0 0
0 0 0
0 0 0
0 0 0
0 0 0
0 0 0
0 0 0
0 0 0
0 0 0
0 0 0
      </DataArray> 
      <DataArray type="Float64" NumberOfComponents="3" Name="Acceleration" format="ascii">
0 0 0
0 0 0
0 0 0
0 0 0
0 0 0
0 0 0
0 0 0
0 0 0
0 0 0
0 0 0
0 0 0
0 0 0
0 0 0
0 0 0
0 0 0
0 0 0
0 0 0
0 0 0
0 0 0
0 0 0
0 0 0
0 0 0
0 0 0
0 0 0
0 0 0
0 0 0
0 0 0
0 0 0
0 0 0
0 0 0
0 0 0
0 0 0
0 0 0
0 0 0
0 0 0
0 0 0
      </DataArray> 
    </PointData>
    <CellData>
    </CellData>
  </Piece>
  </UnstructuredGrid>
</VTKFile>
