<?xml version="1.0"?>
<VTKFile type="UnstructuredGrid">
  <UnstructuredGrid>
  <Piece NumberOfPoints="36"  NumberOfCells="69">
    <Points>
      <DataArray type="Float64" NumberOfComponents="3" format="ascii">
0 0 0
-0.000711429 0.999864 0
-0.00177396 1.99985 0
-0.00258052 2.99995 0
-0.00252423 4.00018 0
-0.000924618 5.00053 0
0.00382195 6.00052 0
0.403819 5.99905 0
3.40417 5.97957 0
6.40336 5.96379 0
9.4014 5.96362 0
12.3994 5.97905 0
15.3986 5.9987 0
15.7986 6.00022 0
15.8031 4.99989 0
15.8041 3.99967 0
15.8037 2.99957 0
15.8025 1.99959 0
15.801 0.999735 0
15.8 0 0
15.4 0 0
15.4011 1.00001 0
15.4025 1.9999 0
15.4037 2.99967 0
15.4042 3.99932 0
15.4031 4.99885 0
12.4037 4.97919 0
9.40316 4.96376 0
6.40135 4.9638 0
3.39958 4.97945 0
0.399018 4.99941 0
0.397495 3.99977 0
0.397439 3.00001 0
0.398245 2.00013 0
0.399308 1.00013 0
0.4 0 0
      </DataArray>
    </Points>
    <Cells>
      <DataArray type="Int32" Name="connectivity" format="ascii">
0 1
1 2
2 3
3 4
4 5
5 6
6 7
7 8
8 9
9 10
10 11
11 12
12 13
13 14
14 15
15 16
16 17
17 18
18 19
19 20
20 21
21 22
22 23
23 24
24 25
25 26
26 27
27 28
28 29
29 30
30 31
31 32
32 33
33 34
34 35
0 35
0 34
1 34
1 33
2 33
2 32
3 32
3 31
4 31
4 30
5 30
5 7
30 7
30 8
29 8
29 9
28 9
28 10
27 10
27 11
26 11
26 12
25 12
25 13
25 14
24 14
24 15
23 15
23 16
22 16
22 17
21 17
21 18
20 18
      </DataArray>
      <DataArray type="Int32" Name="offsets" format="ascii">
2
4
6
8
10
12
14
16
18
20
22
24
26
28
30
32
34
36
38
40
42
44
46
48
50
52
54
56
58
60
62
64
66
68
70
72
74
76
78
80
82
84
86
88
90
92
94
96
98
100
102
104
106
108
110
112
114
116
118
120
122
124
126
128
130
132
134
136
138
      </DataArray>
      <DataArray type="UInt8" Name="types" format="ascii">
4
4
4
4
4
4
4
4
4
4
4
4
4
4
4
4
4
4
4
4
4
4
4
4
4
4
4
4
4
4
4
4
4
4
4
4
4
4
4
4
4
4
4
4
4
4
4
4
4
4
4
4
4
4
4
4
4
4
4
4
4
4
4
4
4
4
4
4
4
      </DataArray>
    </Cells>
    <PointData>
      <DataArray type="Float64" NumberOfComponents="3" Name="Displacement" format="ascii">
0 0 0
-0.000711429 -0.000136151 0
-0.00177396 -0.000151332 0
-0.00258052 -4.51342e-05 0
-0.00252423 0.000182184 0
-0.000924618 0.000528548 0
0.00382195 0.000517283 0
0.00381927 -0.000946638 0
0.00417338 -0.0204329 0
0.00336229 -0.0362062 0
0.00140354 -0.0363787 0
-0.000595984 -0.020947 0
-0.00143525 -0.00129617 0
-0.00138361 0.000215975 0
0.0031118 -0.000114414 0
0.00413375 -0.000333958 0
0.00372492 -0.00043299 0
0.00249151 -0.000410066 0
0.00104088 -0.000265442 0
0 0 0
0 0 0
0.0010604 1.18287e-05 0
0.00251105 -9.82251e-05 0
0.00374437 -0.000329367 0
0.0041534 -0.000681001 0
0.00313291 -0.00115383 0
0.00374957 -0.0208058 0
0.00315827 -0.0362426 0
0.00134643 -0.0362012 0
-0.000422884 -0.0205538 0
-0.000982294 -0.000586584 0
-0.00250531 -0.000226269 0
-0.00256122 1.18651e-05 0
-0.00175467 0.000129076 0
-0.000692133 0.000125253 0
0 0 0
      </DataArray> 
      <DataArray type="Float64" NumberOfComponents="3" Name="Velocity" format="ascii">
0 0 0
0 0 0
0 0 0
0 0 0
0 0 0
0 0 0
0 0 0
0 0 0
0 0 0
0 0 0
0 0 0
0 0 0
0 0 0
0 0 0
0 0 0
0 0 0
0 0 0
0 0 0
0 0 0
0 0 0
0 0 0
0 0 0
0 0 0
0 0 0
0 0 0
0 0 0
0 0 0
0 0 0
0 0 0
0 0 0
0 0 0
0 0 0
0 0 0
0 0 0
0 0 0
0 0 0
      </DataArray> 
      <DataArray type="Float64" NumberOfComponents="3" Name="Acceleration" format="ascii">
0 0 0
0 0 0
0 0 0
0 0 0
0 0 0
0 0 0
0 0 0
0 0 0
0 0 0
0 0 0
0 0 0
0 0 0
0 0 0
0 0 0
0 0 0
0 0 0
0 0 0
0 0 0
0 0 0
0 0 0
0 0 0
0 0 0
0 0 0
0 0 0
0 0 0
0 0 0
0 0 0
0 0 0
0 0 0
0 0 0
0 0 0
0 0 0
0 0 0
0 0 0
0 0 0
0 0 0
      </DataArray> 
    </PointData>
    <CellData>
    </CellData>
  </Piece>
  </UnstructuredGrid>
</VTKFile>
