<?xml version="1.0"?>
<VTKFile type="UnstructuredGrid">
  <UnstructuredGrid>
  <Piece NumberOfPoints="36"  NumberOfCells="69">
    <Points>
      <DataArray type="Float64" NumberOfComponents="3" format="ascii">
0 0 0
-0.00387088 0.999256 0
-0.010536 1.99901 0
-0.0174403 2.99927 0
-0.0220231 4.00005 0
-0.0214219 5.00311 0
0.00841991 6.00267 0
0.408387 5.99751 0
3.40809 5.89225 0
6.40474 5.79417 0
9.39967 5.79454 0
12.3931 5.89078 0
15.3896 5.99528 0
15.7897 6.00521 0
15.818 4.99944 0
15.8203 3.99853 0
15.8171 2.99812 0
15.811 1.99824 0
15.8044 0.998873 0
15.8 0 0
15.4 0 0
15.4045 1.00023 0
15.4111 1.99994 0
15.4172 2.99915 0
15.4204 3.99786 0
15.4181 4.99606 0
12.4222 4.89157 0
9.42269 4.79522 0
6.39973 4.79423 0
3.3776 4.89235 0
0.378337 4.99927 0
0.378056 4.00042 0
0.382637 3.00108 0
0.389539 2.00123 0
0.396207 1.00088 0
0.4 0 0
      </DataArray>
    </Points>
    <Cells>
      <DataArray type="Int32" Name="connectivity" format="ascii">
0 1
1 2
2 3
3 4
4 5
5 6
6 7
7 8
8 9
9 10
10 11
11 12
12 13
13 14
14 15
15 16
16 17
17 18
18 19
19 20
20 21
21 22
22 23
23 24
24 25
25 26
26 27
27 28
28 29
29 30
30 31
31 32
32 33
33 34
34 35
0 35
0 34
1 34
1 33
2 33
2 32
3 32
3 31
4 31
4 30
5 30
5 7
30 7
30 8
29 8
29 9
28 9
28 10
27 10
27 11
26 11
26 12
25 12
25 13
25 14
24 14
24 15
23 15
23 16
22 16
22 17
21 17
21 18
20 18
      </DataArray>
      <DataArray type="Int32" Name="offsets" format="ascii">
2
4
6
8
10
12
14
16
18
20
22
24
26
28
30
32
34
36
38
40
42
44
46
48
50
52
54
56
58
60
62
64
66
68
70
72
74
76
78
80
82
84
86
88
90
92
94
96
98
100
102
104
106
108
110
112
114
116
118
120
122
124
126
128
130
132
134
136
138
      </DataArray>
      <DataArray type="UInt8" Name="types" format="ascii">
4
4
4
4
4
4
4
4
4
4
4
4
4
4
4
4
4
4
4
4
4
4
4
4
4
4
4
4
4
4
4
4
4
4
4
4
4
4
4
4
4
4
4
4
4
4
4
4
4
4
4
4
4
4
4
4
4
4
4
4
4
4
4
4
4
4
4
4
4
      </DataArray>
    </Cells>
    <PointData>
      <DataArray type="Float64" NumberOfComponents="3" Name="Displacement" format="ascii">
0 0 0
-0.00387088 -0.000744329 0
-0.010536 -0.00099293 0
-0.0174403 -0.000733519 0
-0.0220231 4.57505e-05 0
-0.0214219 0.00311102 0
0.00841991 0.00266566 0
0.00838667 -0.00249132 0
0.00809367 -0.107752 0
0.0047441 -0.205831 0
-0.000334428 -0.205465 0
-0.0069038 -0.109224 0
-0.0103816 -0.0047217 0
-0.0102781 0.00520765 0
0.018015 -0.000557123 0
0.0203404 -0.0014698 0
0.0171441 -0.00187505 0
0.0109716 -0.00175759 0
0.00437804 -0.00112724 0
0 0 0
0 0 0
0.00446213 0.000232469 0
0.0110568 -5.63512e-05 0
0.0172275 -0.000852622 0
0.0204241 -0.00214342 0
0.0181242 -0.00393624 0
0.0222224 -0.108425 0
0.0226876 -0.20478 0
-0.000268077 -0.205766 0
-0.0223968 -0.107651 0
-0.0216631 -0.000728706 0
-0.0219443 0.000423007 0
-0.0173634 0.00107575 0
-0.0104607 0.00123135 0
-0.00379347 0.000876128 0
0 0 0
      </DataArray> 
      <DataArray type="Float64" NumberOfComponents="3" Name="Velocity" format="ascii">
0 0 0
0 0 0
0 0 0
0 0 0
0 0 0
0 0 0
0 0 0
0 0 0
0 0 0
0 0 0
0 0 0
0 0 0
0 0 0
0 0 0
0 0 0
0 0 0
0 0 0
0 0 0
0 0 0
0 0 0
0 0 0
0 0 0
0 0 0
0 0 0
0 0 0
0 0 0
0 0 0
0 0 0
0 0 0
0 0 0
0 0 0
0 0 0
0 0 0
0 0 0
0 0 0
0 0 0
      </DataArray> 
      <DataArray type="Float64" NumberOfComponents="3" Name="Acceleration" format="ascii">
0 0 0
0 0 0
0 0 0
0 0 0
0 0 0
0 0 0
0 0 0
0 0 0
0 0 0
0 0 0
0 0 0
0 0 0
0 0 0
0 0 0
0 0 0
0 0 0
0 0 0
0 0 0
0 0 0
0 0 0
0 0 0
0 0 0
0 0 0
0 0 0
0 0 0
0 0 0
0 0 0
0 0 0
0 0 0
0 0 0
0 0 0
0 0 0
0 0 0
0 0 0
0 0 0
0 0 0
      </DataArray> 
    </PointData>
    <CellData>
    </CellData>
  </Piece>
  </UnstructuredGrid>
</VTKFile>
