<?xml version="1.0"?>
<VTKFile type="UnstructuredGrid">
  <UnstructuredGrid>
  <Piece NumberOfPoints="36"  NumberOfCells="69">
    <Points>
      <DataArray type="Float64" NumberOfComponents="3" format="ascii">
0 0 0
-0.000683715 0.999869 0
-0.00170503 1.99985 0
-0.00248069 2.99996 0
-0.00242764 4.00017 0
-0.000892048 5.00051 0
0.00366718 6.0005 0
0.403665 5.99909 0
3.40401 5.98037 0
6.40323 5.96522 0
9.40135 5.96506 0
12.3994 5.97988 0
15.3986 5.99876 0
15.7987 6.00021 0
15.803 4.99989 0
15.804 3.99968 0
15.8036 2.99958 0
15.8024 1.99961 0
15.801 0.999745 0
15.8 0 0
15.4 0 0
15.401 1.00001 0
15.4024 1.99991 0
15.4036 2.99968 0
15.404 3.99935 0
15.403 4.99889 0
12.4036 4.98001 0
9.40303 4.96519 0
6.40129 4.96523 0
3.39959 4.98026 0
0.399053 4.99944 0
0.397591 3.99978 0
0.397538 3.00001 0
0.398314 2.00012 0
0.399335 1.00012 0
0.4 0 0
      </DataArray>
    </Points>
    <Cells>
      <DataArray type="Int32" Name="connectivity" format="ascii">
0 1
1 2
2 3
3 4
4 5
5 6
6 7
7 8
8 9
9 10
10 11
11 12
12 13
13 14
14 15
15 16
16 17
17 18
18 19
19 20
20 21
21 22
22 23
23 24
24 25
25 26
26 27
27 28
28 29
29 30
30 31
31 32
32 33
33 34
34 35
0 35
0 34
1 34
1 33
2 33
2 32
3 32
3 31
4 31
4 30
5 30
5 7
30 7
30 8
29 8
29 9
28 9
28 10
27 10
27 11
26 11
26 12
25 12
25 13
25 14
24 14
24 15
23 15
23 16
22 16
22 17
21 17
21 18
20 18
      </DataArray>
      <DataArray type="Int32" Name="offsets" format="ascii">
2
4
6
8
10
12
14
16
18
20
22
24
26
28
30
32
34
36
38
40
42
44
46
48
50
52
54
56
58
60
62
64
66
68
70
72
74
76
78
80
82
84
86
88
90
92
94
96
98
100
102
104
106
108
110
112
114
116
118
120
122
124
126
128
130
132
134
136
138
      </DataArray>
      <DataArray type="UInt8" Name="types" format="ascii">
4
4
4
4
4
4
4
4
4
4
4
4
4
4
4
4
4
4
4
4
4
4
4
4
4
4
4
4
4
4
4
4
4
4
4
4
4
4
4
4
4
4
4
4
4
4
4
4
4
4
4
4
4
4
4
4
4
4
4
4
4
4
4
4
4
4
4
4
4
      </DataArray>
    </Cells>
    <PointData>
      <DataArray type="Float64" NumberOfComponents="3" Name="Displacement" format="ascii">
0 0 0
-0.000683715 -0.000130855 0
-0.00170503 -0.000145471 0
-0.00248069 -4.34718e-05 0
-0.00242764 0.000174906 0
-0.000892048 0.000507747 0
0.00366718 0.000497354 0
0.00366471 -0.000908682 0
0.00400735 -0.0196264 0
0.00322984 -0.0347783 0
0.00134836 -0.0349442 0
-0.000570812 -0.0201206 0
-0.00137453 -0.00124453 0
-0.00132481 0.000207777 0
0.00299302 -0.000110039 0
0.00397367 -0.000320959 0
0.00357994 -0.000416062 0
0.00239427 -0.000394015 0
0.00100018 -0.000255056 0
0 0 0
0 0 0
0.00101893 1.14402e-05 0
0.00241304 -9.42007e-05 0
0.00359863 -0.00031619 0
0.00399253 -0.000653975 0
0.00301324 -0.00110821 0
0.00360333 -0.0199852 0
0.00303395 -0.0348136 0
0.0012935 -0.0347737 0
-0.000407639 -0.019743 0
-0.000947385 -0.000563211 0
-0.00240944 -0.000217116 0
-0.00246214 1.16233e-05 0
-0.00168649 0.000124168 0
-0.000665172 0.000120415 0
0 0 0
      </DataArray> 
      <DataArray type="Float64" NumberOfComponents="3" Name="Velocity" format="ascii">
0 0 0
0 0 0
0 0 0
0 0 0
0 0 0
0 0 0
0 0 0
0 0 0
0 0 0
0 0 0
0 0 0
0 0 0
0 0 0
0 0 0
0 0 0
0 0 0
0 0 0
0 0 0
0 0 0
0 0 0
0 0 0
0 0 0
0 0 0
0 0 0
0 0 0
0 0 0
0 0 0
0 0 0
0 0 0
0 0 0
0 0 0
0 0 0
0 0 0
0 0 0
0 0 0
0 0 0
      </DataArray> 
      <DataArray type="Float64" NumberOfComponents="3" Name="Acceleration" format="ascii">
0 0 0
0 0 0
0 0 0
0 0 0
0 0 0
0 0 0
0 0 0
0 0 0
0 0 0
0 0 0
0 0 0
0 0 0
0 0 0
0 0 0
0 0 0
0 0 0
0 0 0
0 0 0
0 0 0
0 0 0
0 0 0
0 0 0
0 0 0
0 0 0
0 0 0
0 0 0
0 0 0
0 0 0
0 0 0
0 0 0
0 0 0
0 0 0
0 0 0
0 0 0
0 0 0
0 0 0
      </DataArray> 
    </PointData>
    <CellData>
    </CellData>
  </Piece>
  </UnstructuredGrid>
</VTKFile>
