<?xml version="1.0"?>
<VTKFile type="UnstructuredGrid">
  <UnstructuredGrid>
  <Piece NumberOfPoints="36"  NumberOfCells="69">
    <Points>
      <DataArray type="Float64" NumberOfComponents="3" format="ascii">
0 0 0
-0.0092506 0.998893 0
-0.0226047 1.99846 0
-0.0364591 2.99874 0
-0.0471988 3.99977 0
-0.0504893 5.01529 0
0.049724 6.01026 0
0.449373 5.99352 0
3.43406 5.67017 0
6.41522 5.35805 0
9.40741 5.30985 0
12.3813 5.64429 0
15.3586 5.9918 0
15.7582 6.0167 0
15.8255 4.99973 0
15.8298 3.99778 0
15.8247 2.99725 0
15.8157 1.99746 0
15.8062 0.998385 0
15.8 0 0
15.4 0 0
15.4063 1.00036 0
15.4158 1.99998 0
15.4249 2.99889 0
15.4299 3.99711 0
15.4257 4.99464 0
12.449 4.64712 0
9.466 4.31239 0
6.39164 4.35852 0
3.33301 4.67477 0
0.348871 5.00044 0
0.352905 4.00204 0
0.363632 3.00296 0
0.377482 2.00321 0
0.390844 1.00273 0
0.4 0 0
      </DataArray>
    </Points>
    <Cells>
      <DataArray type="Int32" Name="connectivity" format="ascii">
0 1
1 2
2 3
3 4
4 5
5 6
6 7
7 8
8 9
9 10
10 11
11 12
12 13
13 14
14 15
15 16
16 17
17 18
18 19
19 20
20 21
21 22
22 23
23 24
24 25
25 26
26 27
27 28
28 29
29 30
30 31
31 32
32 33
33 34
34 35
0 35
0 34
1 34
1 33
2 33
2 32
3 32
3 31
4 31
4 30
5 30
5 7
30 7
30 8
29 8
29 9
28 9
28 10
27 10
27 11
26 11
26 12
25 12
25 13
25 14
24 14
24 15
23 15
23 16
22 16
22 17
21 17
21 18
20 18
      </DataArray>
      <DataArray type="Int32" Name="offsets" format="ascii">
2
4
6
8
10
12
14
16
18
20
22
24
26
28
30
32
34
36
38
40
42
44
46
48
50
52
54
56
58
60
62
64
66
68
70
72
74
76
78
80
82
84
86
88
90
92
94
96
98
100
102
104
106
108
110
112
114
116
118
120
122
124
126
128
130
132
134
136
138
      </DataArray>
      <DataArray type="UInt8" Name="types" format="ascii">
4
4
4
4
4
4
4
4
4
4
4
4
4
4
4
4
4
4
4
4
4
4
4
4
4
4
4
4
4
4
4
4
4
4
4
4
4
4
4
4
4
4
4
4
4
4
4
4
4
4
4
4
4
4
4
4
4
4
4
4
4
4
4
4
4
4
4
4
4
      </DataArray>
    </Cells>
    <PointData>
      <DataArray type="Float64" NumberOfComponents="3" Name="Displacement" format="ascii">
0 0 0
-0.0092506 -0.00110669 0
-0.0226047 -0.00153998 0
-0.0364591 -0.0012617 0
-0.0471988 -0.000232626 0
-0.0504893 0.0152938 0
0.049724 0.0102598 0
0.0493734 -0.00648377 0
0.0340645 -0.329829 0
0.0152182 -0.641948 0
0.00741015 -0.690145 0
-0.0186677 -0.355709 0
-0.0413657 -0.00819574 0
-0.0418293 0.016696 0
0.0255277 -0.000270491 0
0.0298142 -0.0022226 0
0.0247467 -0.00275312 0
0.0156819 -0.00254329 0
0.0062015 -0.00161491 0
0 0 0
0 0 0
0.00632106 0.000357327 0
0.0158041 -2.34455e-05 0
0.0248651 -0.00111494 0
0.0299328 -0.00288982 0
0.0257199 -0.00536323 0
0.049018 -0.352876 0
0.0659978 -0.687613 0
-0.00836301 -0.641478 0
-0.0669884 -0.325231 0
-0.0511288 0.000444419 0
-0.0470952 0.00203787 0
-0.0363675 0.00296273 0
-0.022518 0.0032061 0
-0.00915586 0.00272564 0
0 0 0
      </DataArray> 
      <DataArray type="Float64" NumberOfComponents="3" Name="Velocity" format="ascii">
0 0 0
0 0 0
0 0 0
0 0 0
0 0 0
0 0 0
0 0 0
0 0 0
0 0 0
0 0 0
0 0 0
0 0 0
0 0 0
0 0 0
0 0 0
0 0 0
0 0 0
0 0 0
0 0 0
0 0 0
0 0 0
0 0 0
0 0 0
0 0 0
0 0 0
0 0 0
0 0 0
0 0 0
0 0 0
0 0 0
0 0 0
0 0 0
0 0 0
0 0 0
0 0 0
0 0 0
      </DataArray> 
      <DataArray type="Float64" NumberOfComponents="3" Name="Acceleration" format="ascii">
0 0 0
0 0 0
0 0 0
0 0 0
0 0 0
0 0 0
0 0 0
0 0 0
0 0 0
0 0 0
0 0 0
0 0 0
0 0 0
0 0 0
0 0 0
0 0 0
0 0 0
0 0 0
0 0 0
0 0 0
0 0 0
0 0 0
0 0 0
0 0 0
0 0 0
0 0 0
0 0 0
0 0 0
0 0 0
0 0 0
0 0 0
0 0 0
0 0 0
0 0 0
0 0 0
0 0 0
      </DataArray> 
    </PointData>
    <CellData>
    </CellData>
  </Piece>
  </UnstructuredGrid>
</VTKFile>
