<?xml version="1.0"?>
<VTKFile type="UnstructuredGrid">
  <UnstructuredGrid>
  <Piece NumberOfPoints="36"  NumberOfCells="69">
    <Points>
      <DataArray type="Float64" NumberOfComponents="3" format="ascii">
0 0 0
-0.00127224 0.999757 0
-0.00316571 1.99973 0
-0.00458791 2.99992 0
-0.00444694 4.00033 0
-0.00152076 5.00095 0
0.00706076 6.00092 0
0.407052 5.99827 0
3.4076 5.96306 0
6.40607 5.93458 0
9.40253 5.93428 0
12.3989 5.96214 0
15.3972 5.99764 0
15.7973 6.00038 0
15.8055 4.9998 0
15.8074 3.9994 0
15.8067 2.99922 0
15.8045 1.99926 0
15.8019 0.999524 0
15.8 0 0
15.4 0 0
15.4019 1.00002 0
15.4045 1.99982 0
15.4067 2.9994 0
15.4074 3.99876 0
15.4055 4.99791 0
12.4067 4.96241 0
9.4057 4.93453 0
6.40243 4.9346 0
3.39929 4.96285 0
0.398373 4.99893 0
0.395586 3.99958 0
0.395447 3.00001 0
0.396869 2.00023 0
0.398762 1.00022 0
0.4 0 0
      </DataArray>
    </Points>
    <Cells>
      <DataArray type="Int32" Name="connectivity" format="ascii">
0 1
1 2
2 3
3 4
4 5
5 6
6 7
7 8
8 9
9 10
10 11
11 12
12 13
13 14
14 15
15 16
16 17
17 18
18 19
19 20
20 21
21 22
22 23
23 24
24 25
25 26
26 27
27 28
28 29
29 30
30 31
31 32
32 33
33 34
34 35
0 35
0 34
1 34
1 33
2 33
2 32
3 32
3 31
4 31
4 30
5 30
5 7
30 7
30 8
29 8
29 9
28 9
28 10
27 10
27 11
26 11
26 12
25 12
25 13
25 14
24 14
24 15
23 15
23 16
22 16
22 17
21 17
21 18
20 18
      </DataArray>
      <DataArray type="Int32" Name="offsets" format="ascii">
2
4
6
8
10
12
14
16
18
20
22
24
26
28
30
32
34
36
38
40
42
44
46
48
50
52
54
56
58
60
62
64
66
68
70
72
74
76
78
80
82
84
86
88
90
92
94
96
98
100
102
104
106
108
110
112
114
116
118
120
122
124
126
128
130
132
134
136
138
      </DataArray>
      <DataArray type="UInt8" Name="types" format="ascii">
4
4
4
4
4
4
4
4
4
4
4
4
4
4
4
4
4
4
4
4
4
4
4
4
4
4
4
4
4
4
4
4
4
4
4
4
4
4
4
4
4
4
4
4
4
4
4
4
4
4
4
4
4
4
4
4
4
4
4
4
4
4
4
4
4
4
4
4
4
      </DataArray>
    </Cells>
    <PointData>
      <DataArray type="Float64" NumberOfComponents="3" Name="Displacement" format="ascii">
0 0 0
-0.00127224 -0.000243183 0
-0.00316571 -0.000269275 0
-0.00458791 -7.6978e-05 0
-0.00444694 0.000332815 0
-0.00152076 0.000953295 0
0.00706076 0.000916473 0
0.00705198 -0.00173438 0
0.00759581 -0.0369448 0
0.00606936 -0.0654183 0
0.00252944 -0.0657226 0
-0.00114088 -0.0378618 0
-0.00275161 -0.00236207 0
-0.00266294 0.000377932 0
0.00547082 -0.000201397 0
0.00735575 -0.000596723 0
0.00665637 -0.000776588 0
0.00446241 -0.000736228 0
0.00186726 -0.000476417 0
0 0 0
0 0 0
0.00190252 1.83805e-05 0
0.00449773 -0.000183236 0
0.00669143 -0.000602285 0
0.00739144 -0.00123687 0
0.00551133 -0.00208935 0
0.00671203 -0.0375926 0
0.00569725 -0.0654702 0
0.00242615 -0.0654018 0
-0.000709009 -0.0371468 0
-0.00162745 -0.00106909 0
-0.00441364 -0.000417601 0
-0.00455336 1.27863e-05 0
-0.00313118 0.000226215 0
-0.00123769 0.000222377 0
0 0 0
      </DataArray> 
      <DataArray type="Float64" NumberOfComponents="3" Name="Velocity" format="ascii">
0 0 0
0 0 0
0 0 0
0 0 0
0 0 0
0 0 0
0 0 0
0 0 0
0 0 0
0 0 0
0 0 0
0 0 0
0 0 0
0 0 0
0 0 0
0 0 0
0 0 0
0 0 0
0 0 0
0 0 0
0 0 0
0 0 0
0 0 0
0 0 0
0 0 0
0 0 0
0 0 0
0 0 0
0 0 0
0 0 0
0 0 0
0 0 0
0 0 0
0 0 0
0 0 0
0 0 0
      </DataArray> 
      <DataArray type="Float64" NumberOfComponents="3" Name="Acceleration" format="ascii">
0 0 0
0 0 0
0 0 0
0 0 0
0 0 0
0 0 0
0 0 0
0 0 0
0 0 0
0 0 0
0 0 0
0 0 0
0 0 0
0 0 0
0 0 0
0 0 0
0 0 0
0 0 0
0 0 0
0 0 0
0 0 0
0 0 0
0 0 0
0 0 0
0 0 0
0 0 0
0 0 0
0 0 0
0 0 0
0 0 0
0 0 0
0 0 0
0 0 0
0 0 0
0 0 0
0 0 0
      </DataArray> 
    </PointData>
    <CellData>
    </CellData>
  </Piece>
  </UnstructuredGrid>
</VTKFile>
