<?xml version="1.0"?>
<VTKFile type="UnstructuredGrid">
  <UnstructuredGrid>
  <Piece NumberOfPoints="36"  NumberOfCells="69">
    <Points>
      <DataArray type="Float64" NumberOfComponents="3" format="ascii">
0 0 0
-0.00100022 0.999809 0
-0.00249143 1.99979 0
-0.00361733 2.99994 0
-0.00352204 4.00026 0
-0.00124677 5.00075 0
0.00546405 6.00072 0
0.405459 5.99865 0
3.40592 5.97111 0
6.40475 5.94883 0
9.40198 5.94859 0
12.3991 5.97039 0
15.3979 5.99816 0
15.798 6.0003 0
15.8043 4.99984 0
15.8058 3.99953 0
15.8052 2.99939 0
15.8035 1.99942 0
15.8015 0.999626 0
15.8 0 0
15.4 0 0
15.4015 1.00002 0
15.4035 1.99986 0
15.4053 2.99953 0
15.4058 3.99903 0
15.4044 4.99837 0
12.4053 4.97059 0
9.40446 4.94878 0
6.4019 4.94884 0
3.39942 4.97095 0
0.398671 4.99917 0
0.396504 3.99968 0
0.39641 3.00001 0
0.397536 2.00018 0
0.399027 1.00018 0
0.4 0 0
      </DataArray>
    </Points>
    <Cells>
      <DataArray type="Int32" Name="connectivity" format="ascii">
0 1
1 2
2 3
3 4
4 5
5 6
6 7
7 8
8 9
9 10
10 11
11 12
12 13
13 14
14 15
15 16
16 17
17 18
18 19
19 20
20 21
21 22
22 23
23 24
24 25
25 26
26 27
27 28
28 29
29 30
30 31
31 32
32 33
33 34
34 35
0 35
0 34
1 34
1 33
2 33
2 32
3 32
3 31
4 31
4 30
5 30
5 7
30 7
30 8
29 8
29 9
28 9
28 10
27 10
27 11
26 11
26 12
25 12
25 13
25 14
24 14
24 15
23 15
23 16
22 16
22 17
21 17
21 18
20 18
      </DataArray>
      <DataArray type="Int32" Name="offsets" format="ascii">
2
4
6
8
10
12
14
16
18
20
22
24
26
28
30
32
34
36
38
40
42
44
46
48
50
52
54
56
58
60
62
64
66
68
70
72
74
76
78
80
82
84
86
88
90
92
94
96
98
100
102
104
106
108
110
112
114
116
118
120
122
124
126
128
130
132
134
136
138
      </DataArray>
      <DataArray type="UInt8" Name="types" format="ascii">
4
4
4
4
4
4
4
4
4
4
4
4
4
4
4
4
4
4
4
4
4
4
4
4
4
4
4
4
4
4
4
4
4
4
4
4
4
4
4
4
4
4
4
4
4
4
4
4
4
4
4
4
4
4
4
4
4
4
4
4
4
4
4
4
4
4
4
4
4
      </DataArray>
    </Cells>
    <PointData>
      <DataArray type="Float64" NumberOfComponents="3" Name="Displacement" format="ascii">
0 0 0
-0.00100022 -0.000191305 0
-0.00249143 -0.000212229 0
-0.00361733 -6.19682e-05 0
-0.00352204 0.000258946 0
-0.00124677 0.000746357 0
0.00546405 0.00072384 0
0.00545868 -0.00134756 0
0.00592071 -0.0288899 0
0.00474988 -0.0511731 0
0.00198111 -0.0514139 0
-0.000868035 -0.0296118 0
-0.00209204 -0.00184004 0
-0.00202091 0.000300326 0
0.00433735 -0.000159582 0
0.00579716 -0.000469345 0
0.00523509 -0.000609687 0
0.00350568 -0.000577705 0
0.00146577 -0.000373892 0
0 0 0
0 0 0
0.00149335 1.55177e-05 0
0.00353331 -0.000141145 0
0.00526255 -0.000468409 0
0.00582501 -0.0009651 0
0.00436814 -0.00163264 0
0.00527438 -0.0294065 0
0.00446013 -0.0512189 0
0.00190035 -0.051163 0
-0.000575616 -0.0290542 0
-0.00132928 -0.000832763 0
-0.00349565 -0.000323327 0
-0.00359018 1.32936e-05 0
-0.00246429 0.000179621 0
-0.000973082 0.000175451 0
0 0 0
      </DataArray> 
      <DataArray type="Float64" NumberOfComponents="3" Name="Velocity" format="ascii">
0 0 0
0 0 0
0 0 0
0 0 0
0 0 0
0 0 0
0 0 0
0 0 0
0 0 0
0 0 0
0 0 0
0 0 0
0 0 0
0 0 0
0 0 0
0 0 0
0 0 0
0 0 0
0 0 0
0 0 0
0 0 0
0 0 0
0 0 0
0 0 0
0 0 0
0 0 0
0 0 0
0 0 0
0 0 0
0 0 0
0 0 0
0 0 0
0 0 0
0 0 0
0 0 0
0 0 0
      </DataArray> 
      <DataArray type="Float64" NumberOfComponents="3" Name="Acceleration" format="ascii">
0 0 0
0 0 0
0 0 0
0 0 0
0 0 0
0 0 0
0 0 0
0 0 0
0 0 0
0 0 0
0 0 0
0 0 0
0 0 0
0 0 0
0 0 0
0 0 0
0 0 0
0 0 0
0 0 0
0 0 0
0 0 0
0 0 0
0 0 0
0 0 0
0 0 0
0 0 0
0 0 0
0 0 0
0 0 0
0 0 0
0 0 0
0 0 0
0 0 0
0 0 0
0 0 0
0 0 0
      </DataArray> 
    </PointData>
    <CellData>
    </CellData>
  </Piece>
  </UnstructuredGrid>
</VTKFile>
