<?xml version="1.0"?>
<VTKFile type="UnstructuredGrid">
  <UnstructuredGrid>
  <Piece NumberOfPoints="36"  NumberOfCells="69">
    <Points>
      <DataArray type="Float64" NumberOfComponents="3" format="ascii">
0 0 0
-0.00161706 0.999702 0
-0.00403415 1.99967 0
-0.00589554 2.99992 0
-0.00584617 4.00043 0
-0.00236975 5.0012 0
0.00814945 6.00114 0
0.408136 5.99791 0
3.40877 5.95522 0
6.40701 5.91982 0
9.40298 5.91935 0
12.3987 5.95406 0
15.3969 5.99715 0
15.797 6.00049 0
15.807 4.99977 0
15.8092 3.99928 0
15.8083 2.99905 0
15.8055 1.99909 0
15.8023 0.999413 0
15.8 0 0
15.4 0 0
15.4023 1.00004 0
15.4056 1.9998 0
15.4083 2.9993 0
15.4093 3.99852 0
15.407 4.99748 0
12.4086 4.95438 0
9.40753 4.91965 0
6.40282 4.91984 0
3.3984 4.955 0
0.397496 4.99875 0
0.394195 3.99954 0
0.394147 3.00006 0
0.396009 2.00031 0
0.398426 1.00029 0
0.4 0 0
      </DataArray>
    </Points>
    <Cells>
      <DataArray type="Int32" Name="connectivity" format="ascii">
0 1
1 2
2 3
3 4
4 5
5 6
6 7
7 8
8 9
9 10
10 11
11 12
12 13
13 14
14 15
15 16
16 17
17 18
18 19
19 20
20 21
21 22
22 23
23 24
24 25
25 26
26 27
27 28
28 29
29 30
30 31
31 32
32 33
33 34
34 35
0 35
0 34
1 34
1 33
2 33
2 32
3 32
3 31
4 31
4 30
5 30
5 7
30 7
30 8
29 8
29 9
28 9
28 10
27 10
27 11
26 11
26 12
25 12
25 13
25 14
24 14
24 15
23 15
23 16
22 16
22 17
21 17
21 18
20 18
      </DataArray>
      <DataArray type="Int32" Name="offsets" format="ascii">
2
4
6
8
10
12
14
16
18
20
22
24
26
28
30
32
34
36
38
40
42
44
46
48
50
52
54
56
58
60
62
64
66
68
70
72
74
76
78
80
82
84
86
88
90
92
94
96
98
100
102
104
106
108
110
112
114
116
118
120
122
124
126
128
130
132
134
136
138
      </DataArray>
      <DataArray type="UInt8" Name="types" format="ascii">
4
4
4
4
4
4
4
4
4
4
4
4
4
4
4
4
4
4
4
4
4
4
4
4
4
4
4
4
4
4
4
4
4
4
4
4
4
4
4
4
4
4
4
4
4
4
4
4
4
4
4
4
4
4
4
4
4
4
4
4
4
4
4
4
4
4
4
4
4
      </DataArray>
    </Cells>
    <PointData>
      <DataArray type="Float64" NumberOfComponents="3" Name="Displacement" format="ascii">
0 0 0
-0.00161706 -0.000297778 0
-0.00403415 -0.000326625 0
-0.00589554 -8.44106e-05 0
-0.00584617 0.000427815 0
-0.00236975 0.0012001 0
0.00814945 0.00114478 0
0.00813638 -0.00208863 0
0.00876777 -0.0447811 0
0.00701474 -0.0801826 0
0.00298162 -0.0806533 0
-0.0012525 -0.0459445 0
-0.00311728 -0.00284742 0
-0.00300885 0.000485569 0
0.00697793 -0.000228395 0
0.00922804 -0.000723154 0
0.00829702 -0.000951061 0
0.00553667 -0.000905105 0
0.00230393 -0.000586631 0
0 0 0
0 0 0
0.0023478 3.7372e-05 0
0.00558065 -0.000198739 0
0.00834058 -0.000704418 0
0.0092725 -0.00147675 0
0.00702962 -0.00251931 0
0.0085721 -0.0456203 0
0.00753453 -0.080354 0
0.00282148 -0.0801599 0
-0.00159512 -0.0450011 0
-0.00250428 -0.00124929 0
-0.00580518 -0.000456362 0
-0.00585276 6.17259e-05 0
-0.00399146 0.000311142 0
-0.00157432 0.000291254 0
0 0 0
      </DataArray> 
      <DataArray type="Float64" NumberOfComponents="3" Name="Velocity" format="ascii">
0 0 0
0 0 0
0 0 0
0 0 0
0 0 0
0 0 0
0 0 0
0 0 0
0 0 0
0 0 0
0 0 0
0 0 0
0 0 0
0 0 0
0 0 0
0 0 0
0 0 0
0 0 0
0 0 0
0 0 0
0 0 0
0 0 0
0 0 0
0 0 0
0 0 0
0 0 0
0 0 0
0 0 0
0 0 0
0 0 0
0 0 0
0 0 0
0 0 0
0 0 0
0 0 0
0 0 0
      </DataArray> 
      <DataArray type="Float64" NumberOfComponents="3" Name="Acceleration" format="ascii">
0 0 0
0 0 0
0 0 0
0 0 0
0 0 0
0 0 0
0 0 0
0 0 0
0 0 0
0 0 0
0 0 0
0 0 0
0 0 0
0 0 0
0 0 0
0 0 0
0 0 0
0 0 0
0 0 0
0 0 0
0 0 0
0 0 0
0 0 0
0 0 0
0 0 0
0 0 0
0 0 0
0 0 0
0 0 0
0 0 0
0 0 0
0 0 0
0 0 0
0 0 0
0 0 0
0 0 0
      </DataArray> 
    </PointData>
    <CellData>
    </CellData>
  </Piece>
  </UnstructuredGrid>
</VTKFile>
