<?xml version="1.0"?>
<VTKFile type="UnstructuredGrid">
  <UnstructuredGrid>
  <Piece NumberOfPoints="36"  NumberOfCells="69">
    <Points>
      <DataArray type="Float64" NumberOfComponents="3" format="ascii">
0 0 0
-0.00133103 0.999746 0
-0.00331126 1.99972 0
-0.00479691 2.99992 0
-0.0046449 4.00035 0
-0.00157614 5.001 0
0.0074124 6.00096 0
0.407403 5.99818 0
3.40796 5.9613 0
6.40636 5.93148 0
9.40265 5.93117 0
12.3988 5.96034 0
15.3971 5.99752 0
15.7972 6.00039 0
15.8057 4.99979 0
15.8077 3.99938 0
15.807 2.99919 0
15.8047 1.99923 0
15.802 0.999501 0
15.8 0 0
15.4 0 0
15.402 1.00002 0
15.4047 1.99981 0
15.407 2.99937 0
15.4077 3.9987 0
15.4058 4.99781 0
12.407 4.96063 0
9.40597 4.93143 0
6.40254 4.9315 0
3.39926 4.96109 0
0.398312 4.99888 0
0.39539 3.99956 0
0.395239 3.00001 0
0.396725 2.00024 0
0.398705 1.00023 0
0.4 0 0
      </DataArray>
    </Points>
    <Cells>
      <DataArray type="Int32" Name="connectivity" format="ascii">
0 1
1 2
2 3
3 4
4 5
5 6
6 7
7 8
8 9
9 10
10 11
11 12
12 13
13 14
14 15
15 16
16 17
17 18
18 19
19 20
20 21
21 22
22 23
23 24
24 25
25 26
26 27
27 28
28 29
29 30
30 31
31 32
32 33
33 34
34 35
0 35
0 34
1 34
1 33
2 33
2 32
3 32
3 31
4 31
4 30
5 30
5 7
30 7
30 8
29 8
29 9
28 9
28 10
27 10
27 11
26 11
26 12
25 12
25 13
25 14
24 14
24 15
23 15
23 16
22 16
22 17
21 17
21 18
20 18
      </DataArray>
      <DataArray type="Int32" Name="offsets" format="ascii">
2
4
6
8
10
12
14
16
18
20
22
24
26
28
30
32
34
36
38
40
42
44
46
48
50
52
54
56
58
60
62
64
66
68
70
72
74
76
78
80
82
84
86
88
90
92
94
96
98
100
102
104
106
108
110
112
114
116
118
120
122
124
126
128
130
132
134
136
138
      </DataArray>
      <DataArray type="UInt8" Name="types" format="ascii">
4
4
4
4
4
4
4
4
4
4
4
4
4
4
4
4
4
4
4
4
4
4
4
4
4
4
4
4
4
4
4
4
4
4
4
4
4
4
4
4
4
4
4
4
4
4
4
4
4
4
4
4
4
4
4
4
4
4
4
4
4
4
4
4
4
4
4
4
4
      </DataArray>
    </Cells>
    <PointData>
      <DataArray type="Float64" NumberOfComponents="3" Name="Displacement" format="ascii">
0 0 0
-0.00133103 -0.000254387 0
-0.00331126 -0.000281563 0
-0.00479691 -8.01104e-05 0
-0.0046449 0.000348987 0
-0.00157614 0.000998255 0
0.0074124 0.000957857 0
0.00740276 -0.00181919 0
0.00796168 -0.0386974 0
0.00635618 -0.0685166 0
0.00264852 -0.0688344 0
-0.00120201 -0.0396565 0
-0.0028995 -0.00247618 0
-0.00280716 0.000394465 0
0.00571308 -0.000210339 0
0.00769155 -0.000624233 0
0.00696342 -0.000812721 0
0.00466939 -0.000770571 0
0.00195421 -0.000498626 0
0 0 0
0 0 0
0.00199114 1.89197e-05 0
0.00470639 -0.00019255 0
0.00700013 -0.000631599 0
0.00772896 -0.00129616 0
0.00575578 -0.0021888 0
0.00702295 -0.039373 0
0.00596607 -0.0685694 0
0.00254032 -0.0684985 0
-0.000736476 -0.0389072 0
-0.00168816 -0.00112075 0
-0.00461013 -0.000438349 0
-0.00476076 1.24363e-05 0
-0.00327513 0.000236155 0
-0.00129488 0.000232473 0
0 0 0
      </DataArray> 
      <DataArray type="Float64" NumberOfComponents="3" Name="Velocity" format="ascii">
0 0 0
0 0 0
0 0 0
0 0 0
0 0 0
0 0 0
0 0 0
0 0 0
0 0 0
0 0 0
0 0 0
0 0 0
0 0 0
0 0 0
0 0 0
0 0 0
0 0 0
0 0 0
0 0 0
0 0 0
0 0 0
0 0 0
0 0 0
0 0 0
0 0 0
0 0 0
0 0 0
0 0 0
0 0 0
0 0 0
0 0 0
0 0 0
0 0 0
0 0 0
0 0 0
0 0 0
      </DataArray> 
      <DataArray type="Float64" NumberOfComponents="3" Name="Acceleration" format="ascii">
0 0 0
0 0 0
0 0 0
0 0 0
0 0 0
0 0 0
0 0 0
0 0 0
0 0 0
0 0 0
0 0 0
0 0 0
0 0 0
0 0 0
0 0 0
0 0 0
0 0 0
0 0 0
0 0 0
0 0 0
0 0 0
0 0 0
0 0 0
0 0 0
0 0 0
0 0 0
0 0 0
0 0 0
0 0 0
0 0 0
0 0 0
0 0 0
0 0 0
0 0 0
0 0 0
0 0 0
      </DataArray> 
    </PointData>
    <CellData>
    </CellData>
  </Piece>
  </UnstructuredGrid>
</VTKFile>
