<?xml version="1.0"?>
<VTKFile type="UnstructuredGrid">
  <UnstructuredGrid>
  <Piece NumberOfPoints="36"  NumberOfCells="69">
    <Points>
      <DataArray type="Float64" NumberOfComponents="3" format="ascii">
0 0 0
-0.00189454 0.999665 0
-0.00474042 1.99964 0
-0.00699182 2.99992 0
-0.00710352 4.00051 0
-0.00334572 5.00139 0
0.00848037 6.00132 0
0.408464 5.99771 0
3.40916 5.95032 0
6.40736 5.90986 0
9.40323 5.90934 0
12.3988 5.94903 0
15.3969 5.99687 0
15.797 6.00058 0
15.8083 4.99976 0
15.8107 3.99919 0
15.8095 2.99893 0
15.8063 1.99898 0
15.8026 0.999336 0
15.8 0 0
15.4 0 0
15.4027 1.00006 0
15.4064 1.99981 0
15.4096 2.99926 0
15.4107 3.9984 0
15.4083 4.99723 0
12.4101 4.94938 0
9.4092 4.90966 0
6.40305 4.90988 0
3.39727 4.9501 0
0.396499 4.99868 0
0.392943 3.99956 0
0.393057 3.00013 0
0.395308 2.00039 0
0.398154 1.00035 0
0.4 0 0
      </DataArray>
    </Points>
    <Cells>
      <DataArray type="Int32" Name="connectivity" format="ascii">
0 1
1 2
2 3
3 4
4 5
5 6
6 7
7 8
8 9
9 10
10 11
11 12
12 13
13 14
14 15
15 16
16 17
17 18
18 19
19 20
20 21
21 22
22 23
23 24
24 25
25 26
26 27
27 28
28 29
29 30
30 31
31 32
32 33
33 34
34 35
0 35
0 34
1 34
1 33
2 33
2 32
3 32
3 31
4 31
4 30
5 30
5 7
30 7
30 8
29 8
29 9
28 9
28 10
27 10
27 11
26 11
26 12
25 12
25 13
25 14
24 14
24 15
23 15
23 16
22 16
22 17
21 17
21 18
20 18
      </DataArray>
      <DataArray type="Int32" Name="offsets" format="ascii">
2
4
6
8
10
12
14
16
18
20
22
24
26
28
30
32
34
36
38
40
42
44
46
48
50
52
54
56
58
60
62
64
66
68
70
72
74
76
78
80
82
84
86
88
90
92
94
96
98
100
102
104
106
108
110
112
114
116
118
120
122
124
126
128
130
132
134
136
138
      </DataArray>
      <DataArray type="UInt8" Name="types" format="ascii">
4
4
4
4
4
4
4
4
4
4
4
4
4
4
4
4
4
4
4
4
4
4
4
4
4
4
4
4
4
4
4
4
4
4
4
4
4
4
4
4
4
4
4
4
4
4
4
4
4
4
4
4
4
4
4
4
4
4
4
4
4
4
4
4
4
4
4
4
4
      </DataArray>
    </Cells>
    <PointData>
      <DataArray type="Float64" NumberOfComponents="3" Name="Displacement" format="ascii">
0 0 0
-0.00189454 -0.000334788 0
-0.00474042 -0.000363378 0
-0.00699182 -8.28037e-05 0
-0.00710352 0.000506045 0
-0.00334572 0.00139103 0
0.00848037 0.0013211 0
0.00846404 -0.00229242 0
0.00916174 -0.0496815 0
0.0073632 -0.0901417 0
0.00322845 -0.0906629 0
-0.00116816 -0.0509749 0
-0.00308778 -0.00312844 0
-0.00296469 0.000576412 0
0.00826203 -0.000236301 0
0.0106911 -0.000805452 0
0.00953076 -0.00107038 0
0.00632233 -0.00102251 0
0.00261293 -0.000663834 0
0 0 0
0 0 0
0.00266305 6.24785e-05 0
0.00637263 -0.000187315 0
0.00958049 -0.000744334 0
0.0107418 -0.00160476 0
0.0083219 -0.00277313 0
0.0101148 -0.0506224 0
0.00919947 -0.0903408 0
0.0030511 -0.0901162 0
-0.00272764 -0.0498977 0
-0.00350095 -0.00132311 0
-0.00705691 -0.000439539 0
-0.00694311 0.000130538 0
-0.00469188 0.000394824 0
-0.00184594 0.00035226 0
0 0 0
      </DataArray> 
      <DataArray type="Float64" NumberOfComponents="3" Name="Velocity" format="ascii">
0 0 0
0 0 0
0 0 0
0 0 0
0 0 0
0 0 0
0 0 0
0 0 0
0 0 0
0 0 0
0 0 0
0 0 0
0 0 0
0 0 0
0 0 0
0 0 0
0 0 0
0 0 0
0 0 0
0 0 0
0 0 0
0 0 0
0 0 0
0 0 0
0 0 0
0 0 0
0 0 0
0 0 0
0 0 0
0 0 0
0 0 0
0 0 0
0 0 0
0 0 0
0 0 0
0 0 0
      </DataArray> 
      <DataArray type="Float64" NumberOfComponents="3" Name="Acceleration" format="ascii">
0 0 0
0 0 0
0 0 0
0 0 0
0 0 0
0 0 0
0 0 0
0 0 0
0 0 0
0 0 0
0 0 0
0 0 0
0 0 0
0 0 0
0 0 0
0 0 0
0 0 0
0 0 0
0 0 0
0 0 0
0 0 0
0 0 0
0 0 0
0 0 0
0 0 0
0 0 0
0 0 0
0 0 0
0 0 0
0 0 0
0 0 0
0 0 0
0 0 0
0 0 0
0 0 0
0 0 0
      </DataArray> 
    </PointData>
    <CellData>
    </CellData>
  </Piece>
  </UnstructuredGrid>
</VTKFile>
