<?xml version="1.0"?>
<VTKFile type="UnstructuredGrid">
  <UnstructuredGrid>
  <Piece NumberOfPoints="36"  NumberOfCells="69">
    <Points>
      <DataArray type="Float64" NumberOfComponents="3" format="ascii">
0 0 0
-0.00403986 0.999214 0
-0.0110633 1.99894 0
-0.0184425 2.99918 0
-0.0235432 3.99996 0
-0.0234191 5.00347 0
0.00861041 6.00296 0
0.408573 5.99751 0
3.40805 5.88541 0
6.40444 5.78066 0
9.39926 5.78113 0
12.3924 5.88394 0
15.3886 5.99515 0
15.7887 6.00589 0
15.8191 4.99938 0
15.8213 3.99845 0
15.8178 2.99804 0
15.8114 1.99817 0
15.8045 0.998832 0
15.8 0 0
15.4 0 0
15.4046 1.00025 0
15.4115 1.99996 0
15.4179 2.99916 0
15.4214 3.99784 0
15.4192 4.99601 0
12.4236 4.88482 0
9.4243 4.78187 0
6.39935 4.78073 0
3.37537 4.88558 0
0.376333 4.99936 0
0.376538 4.00052 0
0.381636 3.00117 0
0.389013 2.00131 0
0.396039 1.00092 0
0.4 0 0
      </DataArray>
    </Points>
    <Cells>
      <DataArray type="Int32" Name="connectivity" format="ascii">
0 1
1 2
2 3
3 4
4 5
5 6
6 7
7 8
8 9
9 10
10 11
11 12
12 13
13 14
14 15
15 16
16 17
17 18
18 19
19 20
20 21
21 22
22 23
23 24
24 25
25 26
26 27
27 28
28 29
29 30
30 31
31 32
32 33
33 34
34 35
0 35
0 34
1 34
1 33
2 33
2 32
3 32
3 31
4 31
4 30
5 30
5 7
30 7
30 8
29 8
29 9
28 9
28 10
27 10
27 11
26 11
26 12
25 12
25 13
25 14
24 14
24 15
23 15
23 16
22 16
22 17
21 17
21 18
20 18
      </DataArray>
      <DataArray type="Int32" Name="offsets" format="ascii">
2
4
6
8
10
12
14
16
18
20
22
24
26
28
30
32
34
36
38
40
42
44
46
48
50
52
54
56
58
60
62
64
66
68
70
72
74
76
78
80
82
84
86
88
90
92
94
96
98
100
102
104
106
108
110
112
114
116
118
120
122
124
126
128
130
132
134
136
138
      </DataArray>
      <DataArray type="UInt8" Name="types" format="ascii">
4
4
4
4
4
4
4
4
4
4
4
4
4
4
4
4
4
4
4
4
4
4
4
4
4
4
4
4
4
4
4
4
4
4
4
4
4
4
4
4
4
4
4
4
4
4
4
4
4
4
4
4
4
4
4
4
4
4
4
4
4
4
4
4
4
4
4
4
4
      </DataArray>
    </Cells>
    <PointData>
      <DataArray type="Float64" NumberOfComponents="3" Name="Displacement" format="ascii">
0 0 0
-0.00403986 -0.000785735 0
-0.0110633 -0.00106291 0
-0.0184425 -0.000818341 0
-0.0235432 -3.84183e-05 0
-0.0234191 0.00347428 0
0.00861041 0.0029612 0
0.00857331 -0.00248706 0
0.00805373 -0.114588 0
0.00444014 -0.219338 0
-0.000739206 -0.218872 0
-0.00762177 -0.116055 0
-0.0113687 -0.0048474 0
-0.011281 0.00588978 0
0.0191272 -0.000616766 0
0.0212986 -0.00154764 0
0.0178412 -0.00195554 0
0.0113731 -0.00182527 0
0.00452224 -0.00116774 0
0 0 0
0 0 0
0.00460888 0.000250498 0
0.011461 -3.5778e-05 0
0.0179271 -0.000844148 0
0.0213846 -0.00216053 0
0.0192403 -0.00399208 0
0.0236324 -0.115185 0
0.0243026 -0.218127 0
-0.000645162 -0.219268 0
-0.0246296 -0.114425 0
-0.0236674 -0.000637209 0
-0.0234623 0.000523539 0
-0.0183641 0.00117315 0
-0.0109865 0.00131188 0
-0.00396061 0.000924396 0
0 0 0
      </DataArray> 
      <DataArray type="Float64" NumberOfComponents="3" Name="Velocity" format="ascii">
0 0 0
0 0 0
0 0 0
0 0 0
0 0 0
0 0 0
0 0 0
0 0 0
0 0 0
0 0 0
0 0 0
0 0 0
0 0 0
0 0 0
0 0 0
0 0 0
0 0 0
0 0 0
0 0 0
0 0 0
0 0 0
0 0 0
0 0 0
0 0 0
0 0 0
0 0 0
0 0 0
0 0 0
0 0 0
0 0 0
0 0 0
0 0 0
0 0 0
0 0 0
0 0 0
0 0 0
      </DataArray> 
      <DataArray type="Float64" NumberOfComponents="3" Name="Acceleration" format="ascii">
0 0 0
0 0 0
0 0 0
0 0 0
0 0 0
0 0 0
0 0 0
0 0 0
0 0 0
0 0 0
0 0 0
0 0 0
0 0 0
0 0 0
0 0 0
0 0 0
0 0 0
0 0 0
0 0 0
0 0 0
0 0 0
0 0 0
0 0 0
0 0 0
0 0 0
0 0 0
0 0 0
0 0 0
0 0 0
0 0 0
0 0 0
0 0 0
0 0 0
0 0 0
0 0 0
0 0 0
      </DataArray> 
    </PointData>
    <CellData>
    </CellData>
  </Piece>
  </UnstructuredGrid>
</VTKFile>
