<?xml version="1.0"?>
<VTKFile type="UnstructuredGrid">
  <UnstructuredGrid>
  <Piece NumberOfPoints="36"  NumberOfCells="69">
    <Points>
      <DataArray type="Float64" NumberOfComponents="3" format="ascii">
0 0 0
-0.00605074 0.998957 0
-0.016169 1.99853 0
-0.0271258 2.99873 0
-0.0356808 3.9996 0
-0.038123 5.00892 0
0.0258631 6.00687 0
0.425723 5.99629 0
3.42014 5.7851 0
6.41116 5.58304 0
9.40483 5.56083 0
12.3912 5.77198 0
15.3809 5.9939 0
15.7808 6.01115 0
15.8283 4.99886 0
15.8292 3.99779 0
15.8236 2.99736 0
15.8147 1.99761 0
15.8057 0.998495 0
15.8 0 0
15.4 0 0
15.4058 1.00039 0
15.4148 2.00012 0
15.4237 2.9992 0
15.4293 3.99766 0
15.4284 4.99551 0
12.4394 4.77361 0
9.44548 4.56225 0
6.39742 4.58325 0
3.35539 4.78676 0
0.361487 4.99993 0
0.364415 4.00127 0
0.372963 3.002 0
0.383918 2.00211 0
0.394042 1.00156 0
0.4 0 0
      </DataArray>
    </Points>
    <Cells>
      <DataArray type="Int32" Name="connectivity" format="ascii">
0 1
1 2
2 3
3 4
4 5
5 6
6 7
7 8
8 9
9 10
10 11
11 12
12 13
13 14
14 15
15 16
16 17
17 18
18 19
19 20
20 21
21 22
22 23
23 24
24 25
25 26
26 27
27 28
28 29
29 30
30 31
31 32
32 33
33 34
34 35
0 35
0 34
1 34
1 33
2 33
2 32
3 32
3 31
4 31
4 30
5 30
5 7
30 7
30 8
29 8
29 9
28 9
28 10
27 10
27 11
26 11
26 12
25 12
25 13
25 14
24 14
24 15
23 15
23 16
22 16
22 17
21 17
21 18
20 18
      </DataArray>
      <DataArray type="Int32" Name="offsets" format="ascii">
2
4
6
8
10
12
14
16
18
20
22
24
26
28
30
32
34
36
38
40
42
44
46
48
50
52
54
56
58
60
62
64
66
68
70
72
74
76
78
80
82
84
86
88
90
92
94
96
98
100
102
104
106
108
110
112
114
116
118
120
122
124
126
128
130
132
134
136
138
      </DataArray>
      <DataArray type="UInt8" Name="types" format="ascii">
4
4
4
4
4
4
4
4
4
4
4
4
4
4
4
4
4
4
4
4
4
4
4
4
4
4
4
4
4
4
4
4
4
4
4
4
4
4
4
4
4
4
4
4
4
4
4
4
4
4
4
4
4
4
4
4
4
4
4
4
4
4
4
4
4
4
4
4
4
      </DataArray>
    </Cells>
    <PointData>
      <DataArray type="Float64" NumberOfComponents="3" Name="Displacement" format="ascii">
0 0 0
-0.00605074 -0.00104307 0
-0.016169 -0.00147354 0
-0.0271258 -0.00126809 0
-0.0356808 -0.000398676 0
-0.038123 0.0089167 0
0.0258631 0.00686749 0
0.0257231 -0.00371425 0
0.0201381 -0.214896 0
0.0111635 -0.416957 0
0.00482539 -0.439173 0
-0.00880669 -0.228016 0
-0.0190864 -0.00609897 0
-0.0191851 0.011152 0
0.0282594 -0.00113682 0
0.0291783 -0.00221236 0
0.0235824 -0.00263568 0
0.0146863 -0.00239285 0
0.0057165 -0.00150537 0
0 0 0
0 0 0
0.00582442 0.000391583 0
0.0147971 0.000117474 0
0.0236901 -0.000799908 0
0.0292834 -0.00233539 0
0.0284061 -0.00449223 0
0.0393836 -0.226395 0
0.0454784 -0.437749 0
-0.00258056 -0.416751 0
-0.0446139 -0.213241 0
-0.038513 -6.70342e-05 0
-0.0355845 0.0012742 0
-0.0270367 0.00200307 0
-0.016082 0.00210987 0
-0.00595791 0.00156491 0
0 0 0
      </DataArray> 
      <DataArray type="Float64" NumberOfComponents="3" Name="Velocity" format="ascii">
0 0 0
0 0 0
0 0 0
0 0 0
0 0 0
0 0 0
0 0 0
0 0 0
0 0 0
0 0 0
0 0 0
0 0 0
0 0 0
0 0 0
0 0 0
0 0 0
0 0 0
0 0 0
0 0 0
0 0 0
0 0 0
0 0 0
0 0 0
0 0 0
0 0 0
0 0 0
0 0 0
0 0 0
0 0 0
0 0 0
0 0 0
0 0 0
0 0 0
0 0 0
0 0 0
0 0 0
      </DataArray> 
      <DataArray type="Float64" NumberOfComponents="3" Name="Acceleration" format="ascii">
0 0 0
0 0 0
0 0 0
0 0 0
0 0 0
0 0 0
0 0 0
0 0 0
0 0 0
0 0 0
0 0 0
0 0 0
0 0 0
0 0 0
0 0 0
0 0 0
0 0 0
0 0 0
0 0 0
0 0 0
0 0 0
0 0 0
0 0 0
0 0 0
0 0 0
0 0 0
0 0 0
0 0 0
0 0 0
0 0 0
0 0 0
0 0 0
0 0 0
0 0 0
0 0 0
0 0 0
      </DataArray> 
    </PointData>
    <CellData>
    </CellData>
  </Piece>
  </UnstructuredGrid>
</VTKFile>
