<?xml version="1.0"?>
<VTKFile type="UnstructuredGrid">
  <UnstructuredGrid>
  <Piece NumberOfPoints="36"  NumberOfCells="69">
    <Points>
      <DataArray type="Float64" NumberOfComponents="3" format="ascii">
0 0 0
-0.000970592 0.999814 0
-0.00241788 1.99979 0
-0.00351124 2.99994 0
-0.00342039 4.00025 0
-0.00121518 5.00072 0
0.00529306 6.0007 0
0.405288 5.99869 0
3.40574 5.97198 0
6.40461 5.95037 0
9.40192 5.95014 0
12.3992 5.97128 0
15.398 5.99822 0
15.798 6.00029 0
15.8042 4.99985 0
15.8056 3.99954 0
15.8051 2.99941 0
15.8034 1.99944 0
15.8014 0.999637 0
15.8 0 0
15.4 0 0
15.4014 1.00002 0
15.4034 1.99986 0
15.4051 2.99955 0
15.4057 3.99906 0
15.4042 4.99842 0
12.4051 4.97148 0
9.40433 4.95033 0
6.40184 4.95038 0
3.39944 4.97182 0
0.398705 4.99919 0
0.396605 3.99969 0
0.396515 3.00001 0
0.397608 2.00017 0
0.399056 1.00017 0
0.4 0 0
      </DataArray>
    </Points>
    <Cells>
      <DataArray type="Int32" Name="connectivity" format="ascii">
0 1
1 2
2 3
3 4
4 5
5 6
6 7
7 8
8 9
9 10
10 11
11 12
12 13
13 14
14 15
15 16
16 17
17 18
18 19
19 20
20 21
21 22
22 23
23 24
24 25
25 26
26 27
27 28
28 29
29 30
30 31
31 32
32 33
33 34
34 35
0 35
0 34
1 34
1 33
2 33
2 32
3 32
3 31
4 31
4 30
5 30
5 7
30 7
30 8
29 8
29 9
28 9
28 10
27 10
27 11
26 11
26 12
25 12
25 13
25 14
24 14
24 15
23 15
23 16
22 16
22 17
21 17
21 18
20 18
      </DataArray>
      <DataArray type="Int32" Name="offsets" format="ascii">
2
4
6
8
10
12
14
16
18
20
22
24
26
28
30
32
34
36
38
40
42
44
46
48
50
52
54
56
58
60
62
64
66
68
70
72
74
76
78
80
82
84
86
88
90
92
94
96
98
100
102
104
106
108
110
112
114
116
118
120
122
124
126
128
130
132
134
136
138
      </DataArray>
      <DataArray type="UInt8" Name="types" format="ascii">
4
4
4
4
4
4
4
4
4
4
4
4
4
4
4
4
4
4
4
4
4
4
4
4
4
4
4
4
4
4
4
4
4
4
4
4
4
4
4
4
4
4
4
4
4
4
4
4
4
4
4
4
4
4
4
4
4
4
4
4
4
4
4
4
4
4
4
4
4
      </DataArray>
    </Cells>
    <PointData>
      <DataArray type="Float64" NumberOfComponents="3" Name="Displacement" format="ascii">
0 0 0
-0.000970592 -0.000185649 0
-0.00241788 -0.000205995 0
-0.00351124 -6.02827e-05 0
-0.00342039 0.000250992 0
-0.00121518 0.000723919 0
0.00529306 0.00070274 0
0.00528801 -0.00130596 0
0.00573995 -0.0280177 0
0.00460688 -0.0496299 0
0.00192163 -0.0498638 0
-0.000839293 -0.0287183 0
-0.00202261 -0.00178375 0
-0.00195344 0.000291762 0
0.00421263 -0.000154983 0
0.00562689 -0.00045546 0
0.00508018 -0.000591532 0
0.00340154 -0.000560472 0
0.0014221 -0.000362745 0
0 0 0
0 0 0
0.00144886 1.51696e-05 0
0.00342833 -0.000136657 0
0.00510682 -0.000453996 0
0.00565388 -0.00093574 0
0.0042424 -0.00158322 0
0.00511784 -0.0285198 0
0.00432601 -0.049675 0
0.00184331 -0.0496205 0
-0.000560466 -0.0281777 0
-0.0012951 -0.000807281 0
-0.00339477 -0.000313225 0
-0.0034849 1.32395e-05 0
-0.00239155 0.000174485 0
-0.000944254 0.000170318 0
0 0 0
      </DataArray> 
      <DataArray type="Float64" NumberOfComponents="3" Name="Velocity" format="ascii">
0 0 0
0 0 0
0 0 0
0 0 0
0 0 0
0 0 0
0 0 0
0 0 0
0 0 0
0 0 0
0 0 0
0 0 0
0 0 0
0 0 0
0 0 0
0 0 0
0 0 0
0 0 0
0 0 0
0 0 0
0 0 0
0 0 0
0 0 0
0 0 0
0 0 0
0 0 0
0 0 0
0 0 0
0 0 0
0 0 0
0 0 0
0 0 0
0 0 0
0 0 0
0 0 0
0 0 0
      </DataArray> 
      <DataArray type="Float64" NumberOfComponents="3" Name="Acceleration" format="ascii">
0 0 0
0 0 0
0 0 0
0 0 0
0 0 0
0 0 0
0 0 0
0 0 0
0 0 0
0 0 0
0 0 0
0 0 0
0 0 0
0 0 0
0 0 0
0 0 0
0 0 0
0 0 0
0 0 0
0 0 0
0 0 0
0 0 0
0 0 0
0 0 0
0 0 0
0 0 0
0 0 0
0 0 0
0 0 0
0 0 0
0 0 0
0 0 0
0 0 0
0 0 0
0 0 0
0 0 0
      </DataArray> 
    </PointData>
    <CellData>
    </CellData>
  </Piece>
  </UnstructuredGrid>
</VTKFile>
