<?xml version="1.0"?>
<VTKFile type="UnstructuredGrid">
  <UnstructuredGrid>
  <Piece NumberOfPoints="36"  NumberOfCells="69">
    <Points>
      <DataArray type="Float64" NumberOfComponents="3" format="ascii">
0 0 0
-0.00696505 0.99894 0
-0.0180182 1.99851 0
-0.0298448 2.99872 0
-0.0391184 3.99963 0
-0.0419965 5.01033 0
0.0298115 6.00775 0
0.429636 5.99588 0
3.42231 5.76048 0
6.41155 5.53463 0
9.40491 5.50675 0
12.389 5.74449 0
15.3765 5.99348 0
15.7764 6.01234 0
15.828 4.9989 0
15.8293 3.99779 0
15.8238 2.99734 0
15.8149 1.99757 0
15.8058 0.99847 0
15.8 0 0
15.4 0 0
15.4059 1.00038 0
15.415 2.00009 0
15.4239 2.99913 0
15.4294 3.99754 0
15.4282 4.99531 0
12.4414 4.74633 0
9.44938 4.50838 0
6.39566 4.53489 0
3.34972 4.76266 0
0.357568 5.00013 0
0.360979 4.00153 0
0.370244 3.0023 0
0.382068 2.00243 0
0.393128 1.0019 0
0.4 0 0
      </DataArray>
    </Points>
    <Cells>
      <DataArray type="Int32" Name="connectivity" format="ascii">
0 1
1 2
2 3
3 4
4 5
5 6
6 7
7 8
8 9
9 10
10 11
11 12
12 13
13 14
14 15
15 16
16 17
17 18
18 19
19 20
20 21
21 22
22 23
23 24
24 25
25 26
26 27
27 28
28 29
29 30
30 31
31 32
32 33
33 34
34 35
0 35
0 34
1 34
1 33
2 33
2 32
3 32
3 31
4 31
4 30
5 30
5 7
30 7
30 8
29 8
29 9
28 9
28 10
27 10
27 11
26 11
26 12
25 12
25 13
25 14
24 14
24 15
23 15
23 16
22 16
22 17
21 17
21 18
20 18
      </DataArray>
      <DataArray type="Int32" Name="offsets" format="ascii">
2
4
6
8
10
12
14
16
18
20
22
24
26
28
30
32
34
36
38
40
42
44
46
48
50
52
54
56
58
60
62
64
66
68
70
72
74
76
78
80
82
84
86
88
90
92
94
96
98
100
102
104
106
108
110
112
114
116
118
120
122
124
126
128
130
132
134
136
138
      </DataArray>
      <DataArray type="UInt8" Name="types" format="ascii">
4
4
4
4
4
4
4
4
4
4
4
4
4
4
4
4
4
4
4
4
4
4
4
4
4
4
4
4
4
4
4
4
4
4
4
4
4
4
4
4
4
4
4
4
4
4
4
4
4
4
4
4
4
4
4
4
4
4
4
4
4
4
4
4
4
4
4
4
4
      </DataArray>
    </Cells>
    <PointData>
      <DataArray type="Float64" NumberOfComponents="3" Name="Displacement" format="ascii">
0 0 0
-0.00696505 -0.00106007 0
-0.0180182 -0.00149443 0
-0.0298448 -0.00127597 0
-0.0391184 -0.00037345 0
-0.0419965 0.0103285 0
0.0298115 0.007747 0
0.0296356 -0.00411573 0
0.0223109 -0.239522 0
0.0115501 -0.465367 0
0.00491462 -0.493255 0
-0.0109644 -0.255514 0
-0.0234672 -0.00652393 0
-0.02363 0.0123412 0
0.0280259 -0.00109739 0
0.0293098 -0.00221236 0
0.0238394 -0.00266068 0
0.0149089 -0.00242593 0
0.00582555 -0.00152973 0
0 0 0
0 0 0
0.00593612 0.00038382 0
0.0150222 8.54911e-05 0
0.0239495 -0.000871473 0
0.0294177 -0.0024614 0
0.0281808 -0.00468921 0
0.0413696 -0.253668 0
0.0493825 -0.491624 0
-0.00433796 -0.465113 0
-0.0502826 -0.237344 0
-0.0424316 0.000128373 0
-0.0390208 0.00152533 0
-0.0297556 0.0022979 0
-0.0179318 0.00243485 0
-0.006872 0.00190304 0
0 0 0
      </DataArray> 
      <DataArray type="Float64" NumberOfComponents="3" Name="Velocity" format="ascii">
0 0 0
0 0 0
0 0 0
0 0 0
0 0 0
0 0 0
0 0 0
0 0 0
0 0 0
0 0 0
0 0 0
0 0 0
0 0 0
0 0 0
0 0 0
0 0 0
0 0 0
0 0 0
0 0 0
0 0 0
0 0 0
0 0 0
0 0 0
0 0 0
0 0 0
0 0 0
0 0 0
0 0 0
0 0 0
0 0 0
0 0 0
0 0 0
0 0 0
0 0 0
0 0 0
0 0 0
      </DataArray> 
      <DataArray type="Float64" NumberOfComponents="3" Name="Acceleration" format="ascii">
0 0 0
0 0 0
0 0 0
0 0 0
0 0 0
0 0 0
0 0 0
0 0 0
0 0 0
0 0 0
0 0 0
0 0 0
0 0 0
0 0 0
0 0 0
0 0 0
0 0 0
0 0 0
0 0 0
0 0 0
0 0 0
0 0 0
0 0 0
0 0 0
0 0 0
0 0 0
0 0 0
0 0 0
0 0 0
0 0 0
0 0 0
0 0 0
0 0 0
0 0 0
0 0 0
0 0 0
      </DataArray> 
    </PointData>
    <CellData>
    </CellData>
  </Piece>
  </UnstructuredGrid>
</VTKFile>
