<?xml version="1.0"?>
<VTKFile type="UnstructuredGrid">
  <UnstructuredGrid>
  <Piece NumberOfPoints="36"  NumberOfCells="69">
    <Points>
      <DataArray type="Float64" NumberOfComponents="3" format="ascii">
0 0 0
-0.0018425 0.999672 0
-0.00460799 1.99964 0
-0.00678635 2.99992 0
-0.00686805 4.00049 0
-0.00316337 5.00136 0
0.00841703 6.00129 0
0.408401 5.99775 0
3.40909 5.95124 0
6.4073 5.91173 0
9.40318 5.91122 0
12.3988 5.94997 0
15.3969 5.99692 0
15.797 6.00056 0
15.808 4.99977 0
15.8104 3.99921 0
15.8093 2.99895 0
15.8062 1.999 0
15.8026 0.999351 0
15.8 0 0
15.4 0 0
15.4026 1.00006 0
15.4062 1.99981 0
15.4093 2.99926 0
15.4105 3.99842 0
15.4081 4.99727 0
12.4098 4.95032 0
9.40889 4.91154 0
6.40301 4.91176 0
3.39748 4.95102 0
0.396685 4.99869 0
0.393178 3.99956 0
0.393261 3.00012 0
0.395439 2.00038 0
0.398205 1.00034 0
0.4 0 0
      </DataArray>
    </Points>
    <Cells>
      <DataArray type="Int32" Name="connectivity" format="ascii">
0 1
1 2
2 3
3 4
4 5
5 6
6 7
7 8
8 9
9 10
10 11
11 12
12 13
13 14
14 15
15 16
16 17
17 18
18 19
19 20
20 21
21 22
22 23
23 24
24 25
25 26
26 27
27 28
28 29
29 30
30 31
31 32
32 33
33 34
34 35
0 35
0 34
1 34
1 33
2 33
2 32
3 32
3 31
4 31
4 30
5 30
5 7
30 7
30 8
29 8
29 9
28 9
28 10
27 10
27 11
26 11
26 12
25 12
25 13
25 14
24 14
24 15
23 15
23 16
22 16
22 17
21 17
21 18
20 18
      </DataArray>
      <DataArray type="Int32" Name="offsets" format="ascii">
2
4
6
8
10
12
14
16
18
20
22
24
26
28
30
32
34
36
38
40
42
44
46
48
50
52
54
56
58
60
62
64
66
68
70
72
74
76
78
80
82
84
86
88
90
92
94
96
98
100
102
104
106
108
110
112
114
116
118
120
122
124
126
128
130
132
134
136
138
      </DataArray>
      <DataArray type="UInt8" Name="types" format="ascii">
4
4
4
4
4
4
4
4
4
4
4
4
4
4
4
4
4
4
4
4
4
4
4
4
4
4
4
4
4
4
4
4
4
4
4
4
4
4
4
4
4
4
4
4
4
4
4
4
4
4
4
4
4
4
4
4
4
4
4
4
4
4
4
4
4
4
4
4
4
      </DataArray>
    </Cells>
    <PointData>
      <DataArray type="Float64" NumberOfComponents="3" Name="Displacement" format="ascii">
0 0 0
-0.0018425 -0.00032785 0
-0.00460799 -0.000356489 0
-0.00678635 -8.3117e-05 0
-0.00686805 0.000491341 0
-0.00316337 0.00135517 0
0.00841703 0.00128812 0
0.00840135 -0.00225391 0
0.00908717 -0.0487601 0
0.00729784 -0.0882696 0
0.00318218 -0.0887813 0
-0.00118327 -0.0500292 0
-0.00309201 -0.00307545 0
-0.00297165 0.000559446 0
0.00802193 -0.000234846 0
0.0104171 -0.000790024 0
0.00929952 -0.001048 0
0.00617501 -0.00100048 0
0.00255497 -0.000649351 0
0 0 0
0 0 0
0.00260392 5.77866e-05 0
0.00622412 -0.000189409 0
0.00934809 -0.000736763 0
0.0104666 -0.00158063 0
0.00808024 -0.00272537 0
0.00982552 -0.0496821 0
0.00888663 -0.0884637 0
0.00300804 -0.0882446 0
-0.00251529 -0.0489772 0
-0.00331469 -0.00130915 0
-0.00682249 -0.000442617 0
-0.00673875 0.000117689 0
-0.00456054 0.000379161 0
-0.00179499 0.000340828 0
0 0 0
      </DataArray> 
      <DataArray type="Float64" NumberOfComponents="3" Name="Velocity" format="ascii">
0 0 0
0 0 0
0 0 0
0 0 0
0 0 0
0 0 0
0 0 0
0 0 0
0 0 0
0 0 0
0 0 0
0 0 0
0 0 0
0 0 0
0 0 0
0 0 0
0 0 0
0 0 0
0 0 0
0 0 0
0 0 0
0 0 0
0 0 0
0 0 0
0 0 0
0 0 0
0 0 0
0 0 0
0 0 0
0 0 0
0 0 0
0 0 0
0 0 0
0 0 0
0 0 0
0 0 0
      </DataArray> 
      <DataArray type="Float64" NumberOfComponents="3" Name="Acceleration" format="ascii">
0 0 0
0 0 0
0 0 0
0 0 0
0 0 0
0 0 0
0 0 0
0 0 0
0 0 0
0 0 0
0 0 0
0 0 0
0 0 0
0 0 0
0 0 0
0 0 0
0 0 0
0 0 0
0 0 0
0 0 0
0 0 0
0 0 0
0 0 0
0 0 0
0 0 0
0 0 0
0 0 0
0 0 0
0 0 0
0 0 0
0 0 0
0 0 0
0 0 0
0 0 0
0 0 0
0 0 0
      </DataArray> 
    </PointData>
    <CellData>
    </CellData>
  </Piece>
  </UnstructuredGrid>
</VTKFile>
