<?xml version="1.0"?>
<VTKFile type="UnstructuredGrid">
  <UnstructuredGrid>
  <Piece NumberOfPoints="36"  NumberOfCells="69">
    <Points>
      <DataArray type="Float64" NumberOfComponents="3" format="ascii">
0 0 0
-0.000151453 0.999971 0
-0.000378398 1.99997 0
-0.000552395 2.99999 0
-0.000545009 4.00004 0
-0.000211977 5.00011 0
0.000787805 6.00011 0
0.400788 5.9998 0
3.40087 5.9957 0
6.40071 5.99237 0
9.4003 5.99233 0
12.3999 5.99559 0
15.3997 5.99973 0
15.7997 6.00005 0
15.8007 4.99998 0
15.8009 3.99993 0
15.8008 2.99991 0
15.8005 1.99991 0
15.8002 0.999944 0
15.8 0 0
15.4 0 0
15.4002 1 0
15.4005 1.99998 0
15.4008 2.99993 0
15.4009 3.99986 0
15.4007 4.99976 0
12.4008 4.99562 0
9.40067 4.99236 0
6.40028 4.99237 0
3.3999 4.99567 0
0.399776 4.99988 0
0.399459 3.99995 0
0.399452 3 0
0.399626 2.00003 0
0.399853 1.00003 0
0.4 0 0
      </DataArray>
    </Points>
    <Cells>
      <DataArray type="Int32" Name="connectivity" format="ascii">
0 1
1 2
2 3
3 4
4 5
5 6
6 7
7 8
8 9
9 10
10 11
11 12
12 13
13 14
14 15
15 16
16 17
17 18
18 19
19 20
20 21
21 22
22 23
23 24
24 25
25 26
26 27
27 28
28 29
29 30
30 31
31 32
32 33
33 34
34 35
0 35
0 34
1 34
1 33
2 33
2 32
3 32
3 31
4 31
4 30
5 30
5 7
30 7
30 8
29 8
29 9
28 9
28 10
27 10
27 11
26 11
26 12
25 12
25 13
25 14
24 14
24 15
23 15
23 16
22 16
22 17
21 17
21 18
20 18
      </DataArray>
      <DataArray type="Int32" Name="offsets" format="ascii">
2
4
6
8
10
12
14
16
18
20
22
24
26
28
30
32
34
36
38
40
42
44
46
48
50
52
54
56
58
60
62
64
66
68
70
72
74
76
78
80
82
84
86
88
90
92
94
96
98
100
102
104
106
108
110
112
114
116
118
120
122
124
126
128
130
132
134
136
138
      </DataArray>
      <DataArray type="UInt8" Name="types" format="ascii">
4
4
4
4
4
4
4
4
4
4
4
4
4
4
4
4
4
4
4
4
4
4
4
4
4
4
4
4
4
4
4
4
4
4
4
4
4
4
4
4
4
4
4
4
4
4
4
4
4
4
4
4
4
4
4
4
4
4
4
4
4
4
4
4
4
4
4
4
4
      </DataArray>
    </Cells>
    <PointData>
      <DataArray type="Float64" NumberOfComponents="3" Name="Displacement" format="ascii">
0 0 0
-0.000151453 -2.90157e-05 0
-0.000378398 -3.23632e-05 0
-0.000552395 -1.00239e-05 0
-0.000545009 3.79913e-05 0
-0.000211977 0.000111591 0
0.000787805 0.000111091 0
0.000787687 -0.000196783 0
0.000873272 -0.00430345 0
0.000709304 -0.00763081 0
0.000296569 -0.00766803 0
-0.00011828 -0.00441316 0
-0.0002844 -0.000270882 0
-0.000272992 4.69227e-05 0
0.000673166 -2.47136e-05 0
0.000884165 -7.1131e-05 0
0.000793512 -9.18988e-05 0
0.00052961 -8.69536e-05 0
0.000220915 -5.63074e-05 0
0 0 0
0 0 0
0.00022503 2.83633e-06 0
0.000533726 -2.0037e-05 0
0.000797623 -6.85844e-05 0
0.000888285 -0.000142779 0
0.000677351 -0.00024265 0
0.000797448 -0.00438497 0
0.000666699 -0.00764008 0
0.000284543 -0.00763063 0
-9.54208e-05 -0.0043308 0
-0.000223852 -0.000122577 0
-0.000540921 -4.66789e-05 0
-0.000548291 3.49823e-06 0
-0.000374294 2.80095e-05 0
-0.000147349 2.68494e-05 0
0 0 0
      </DataArray> 
      <DataArray type="Float64" NumberOfComponents="3" Name="Velocity" format="ascii">
0 0 0
0 0 0
0 0 0
0 0 0
0 0 0
0 0 0
0 0 0
0 0 0
0 0 0
0 0 0
0 0 0
0 0 0
0 0 0
0 0 0
0 0 0
0 0 0
0 0 0
0 0 0
0 0 0
0 0 0
0 0 0
0 0 0
0 0 0
0 0 0
0 0 0
0 0 0
0 0 0
0 0 0
0 0 0
0 0 0
0 0 0
0 0 0
0 0 0
0 0 0
0 0 0
0 0 0
      </DataArray> 
      <DataArray type="Float64" NumberOfComponents="3" Name="Acceleration" format="ascii">
0 0 0
0 0 0
0 0 0
0 0 0
0 0 0
0 0 0
0 0 0
0 0 0
0 0 0
0 0 0
0 0 0
0 0 0
0 0 0
0 0 0
0 0 0
0 0 0
0 0 0
0 0 0
0 0 0
0 0 0
0 0 0
0 0 0
0 0 0
0 0 0
0 0 0
0 0 0
0 0 0
0 0 0
0 0 0
0 0 0
0 0 0
0 0 0
0 0 0
0 0 0
0 0 0
0 0 0
      </DataArray> 
    </PointData>
    <CellData>
    </CellData>
  </Piece>
  </UnstructuredGrid>
</VTKFile>
