<?xml version="1.0"?>
<VTKFile type="UnstructuredGrid">
  <UnstructuredGrid>
  <Piece NumberOfPoints="36"  NumberOfCells="69">
    <Points>
      <DataArray type="Float64" NumberOfComponents="3" format="ascii">
0 0 0
-0.00420995 0.999173 0
-0.0115895 1.99887 0
-0.0194351 2.9991 0
-0.025036 3.99988 0
-0.0253574 5.00391 0
0.00929767 6.00331 0
0.409255 5.99749 0
3.40844 5.8772 0
6.4045 5.76445 0
9.39921 5.76423 0
12.3919 5.87514 0
15.3878 5.99503 0
15.7879 6.00656 0
15.8204 4.99931 0
15.8224 3.99836 0
15.8186 2.99796 0
15.8118 1.9981 0
15.8047 0.998789 0
15.8 0 0
15.4 0 0
15.4048 1.00027 0
15.4119 1.99999 0
15.4187 2.99917 0
15.4224 3.99783 0
15.4205 4.99596 0
12.4253 4.87609 0
9.42621 4.76504 0
6.39907 4.76452 0
3.37313 4.87745 0
0.374385 4.99945 0
0.375047 4.00062 0
0.380645 3.00127 0
0.388489 2.00139 0
0.395871 1.00097 0
0.4 0 0
      </DataArray>
    </Points>
    <Cells>
      <DataArray type="Int32" Name="connectivity" format="ascii">
0 1
1 2
2 3
3 4
4 5
5 6
6 7
7 8
8 9
9 10
10 11
11 12
12 13
13 14
14 15
15 16
16 17
17 18
18 19
19 20
20 21
21 22
22 23
23 24
24 25
25 26
26 27
27 28
28 29
29 30
30 31
31 32
32 33
33 34
34 35
0 35
0 34
1 34
1 33
2 33
2 32
3 32
3 31
4 31
4 30
5 30
5 7
30 7
30 8
29 8
29 9
28 9
28 10
27 10
27 11
26 11
26 12
25 12
25 13
25 14
24 14
24 15
23 15
23 16
22 16
22 17
21 17
21 18
20 18
      </DataArray>
      <DataArray type="Int32" Name="offsets" format="ascii">
2
4
6
8
10
12
14
16
18
20
22
24
26
28
30
32
34
36
38
40
42
44
46
48
50
52
54
56
58
60
62
64
66
68
70
72
74
76
78
80
82
84
86
88
90
92
94
96
98
100
102
104
106
108
110
112
114
116
118
120
122
124
126
128
130
132
134
136
138
      </DataArray>
      <DataArray type="UInt8" Name="types" format="ascii">
4
4
4
4
4
4
4
4
4
4
4
4
4
4
4
4
4
4
4
4
4
4
4
4
4
4
4
4
4
4
4
4
4
4
4
4
4
4
4
4
4
4
4
4
4
4
4
4
4
4
4
4
4
4
4
4
4
4
4
4
4
4
4
4
4
4
4
4
4
      </DataArray>
    </Cells>
    <PointData>
      <DataArray type="Float64" NumberOfComponents="3" Name="Displacement" format="ascii">
0 0 0
-0.00420995 -0.000826741 0
-0.0115895 -0.00113157 0
-0.0194351 -0.0009004 0
-0.025036 -0.000117811 0
-0.0253574 0.0039108 0
0.00929767 0.00331014 0
0.00925527 -0.00251389 0
0.00844323 -0.122799 0
0.00449894 -0.235552 0
-0.000788982 -0.235765 0
-0.00806375 -0.124859 0
-0.0121778 -0.00497303 0
-0.012107 0.0065558 0
0.0203746 -0.000686581 0
0.0223536 -0.00163504 0
0.0185994 -0.00204412 0
0.0118056 -0.00189884 0
0.00467603 -0.00121141 0
0 0 0
0 0 0
0.00476534 0.000270626 0
0.0118964 -1.17564e-05 0
0.018688 -0.000831562 0
0.022442 -0.0021734 0
0.0204916 -0.00404391 0
0.0252715 -0.123913 0
0.0262129 -0.234956 0
-0.00092594 -0.235476 0
-0.0268736 -0.122553 0
-0.0256148 -0.000553818 0
-0.024953 0.000618835 0
-0.0193552 0.00126755 0
-0.0115112 0.00139106 0
-0.00412877 0.000972314 0
0 0 0
      </DataArray> 
      <DataArray type="Float64" NumberOfComponents="3" Name="Velocity" format="ascii">
0 0 0
0 0 0
0 0 0
0 0 0
0 0 0
0 0 0
0 0 0
0 0 0
0 0 0
0 0 0
0 0 0
0 0 0
0 0 0
0 0 0
0 0 0
0 0 0
0 0 0
0 0 0
0 0 0
0 0 0
0 0 0
0 0 0
0 0 0
0 0 0
0 0 0
0 0 0
0 0 0
0 0 0
0 0 0
0 0 0
0 0 0
0 0 0
0 0 0
0 0 0
0 0 0
0 0 0
      </DataArray> 
      <DataArray type="Float64" NumberOfComponents="3" Name="Acceleration" format="ascii">
0 0 0
0 0 0
0 0 0
0 0 0
0 0 0
0 0 0
0 0 0
0 0 0
0 0 0
0 0 0
0 0 0
0 0 0
0 0 0
0 0 0
0 0 0
0 0 0
0 0 0
0 0 0
0 0 0
0 0 0
0 0 0
0 0 0
0 0 0
0 0 0
0 0 0
0 0 0
0 0 0
0 0 0
0 0 0
0 0 0
0 0 0
0 0 0
0 0 0
0 0 0
0 0 0
0 0 0
      </DataArray> 
    </PointData>
    <CellData>
    </CellData>
  </Piece>
  </UnstructuredGrid>
</VTKFile>
