<?xml version="1.0"?>
<VTKFile type="UnstructuredGrid">
  <UnstructuredGrid>
  <Piece NumberOfPoints="36"  NumberOfCells="69">
    <Points>
      <DataArray type="Float64" NumberOfComponents="3" format="ascii">
0 0 0
-0.00101292 0.999806 0
-0.00252293 1.99979 0
-0.00366275 2.99994 0
-0.00356552 4.00026 0
-0.0012602 5.00076 0
0.00553747 6.00073 0
0.405532 5.99863 0
3.406 5.97074 0
6.40481 5.94817 0
9.40201 5.94792 0
12.3991 5.97001 0
15.3979 5.99814 0
15.798 6.0003 0
15.8044 4.99984 0
15.8059 3.99952 0
15.8053 2.99938 0
15.8036 1.99941 0
15.8015 0.999621 0
15.8 0 0
15.4 0 0
15.4015 1.00002 0
15.4036 1.99986 0
15.4053 2.99953 0
15.4059 3.99902 0
15.4044 4.99835 0
12.4053 4.97021 0
9.40452 4.94812 0
6.40192 4.94818 0
3.39942 4.97057 0
0.398656 4.99916 0
0.396461 3.99967 0
0.396365 3.00001 0
0.397505 2.00018 0
0.399015 1.00018 0
0.4 0 0
      </DataArray>
    </Points>
    <Cells>
      <DataArray type="Int32" Name="connectivity" format="ascii">
0 1
1 2
2 3
3 4
4 5
5 6
6 7
7 8
8 9
9 10
10 11
11 12
12 13
13 14
14 15
15 16
16 17
17 18
18 19
19 20
20 21
21 22
22 23
23 24
24 25
25 26
26 27
27 28
28 29
29 30
30 31
31 32
32 33
33 34
34 35
0 35
0 34
1 34
1 33
2 33
2 32
3 32
3 31
4 31
4 30
5 30
5 7
30 7
30 8
29 8
29 9
28 9
28 10
27 10
27 11
26 11
26 12
25 12
25 13
25 14
24 14
24 15
23 15
23 16
22 16
22 17
21 17
21 18
20 18
      </DataArray>
      <DataArray type="Int32" Name="offsets" format="ascii">
2
4
6
8
10
12
14
16
18
20
22
24
26
28
30
32
34
36
38
40
42
44
46
48
50
52
54
56
58
60
62
64
66
68
70
72
74
76
78
80
82
84
86
88
90
92
94
96
98
100
102
104
106
108
110
112
114
116
118
120
122
124
126
128
130
132
134
136
138
      </DataArray>
      <DataArray type="UInt8" Name="types" format="ascii">
4
4
4
4
4
4
4
4
4
4
4
4
4
4
4
4
4
4
4
4
4
4
4
4
4
4
4
4
4
4
4
4
4
4
4
4
4
4
4
4
4
4
4
4
4
4
4
4
4
4
4
4
4
4
4
4
4
4
4
4
4
4
4
4
4
4
4
4
4
      </DataArray>
    </Cells>
    <PointData>
      <DataArray type="Float64" NumberOfComponents="3" Name="Displacement" format="ascii">
0 0 0
-0.00101292 -0.000193727 0
-0.00252293 -0.000214897 0
-0.00366275 -6.26872e-05 0
-0.00356552 0.000262359 0
-0.0012602 0.000755975 0
0.00553747 0.000732871 0
0.00553196 -0.00136541 0
0.00599824 -0.0292638 0
0.00481118 -0.0518346 0
0.0020066 -0.0520784 0
-0.000880405 -0.0299948 0
-0.00212193 -0.00186419 0
-0.00204996 0.000303988 0
0.0043907 -0.000161549 0
0.00587007 -0.000475293 0
0.00530143 -0.000617465 0
0.00355029 -0.000585089 0
0.00148447 -0.000378668 0
0 0 0
0 0 0
0.00151242 1.56646e-05 0
0.00357828 -0.000143073 0
0.00532925 -0.000474593 0
0.00589828 -0.000977692 0
0.00442193 -0.00165383 0
0.00534143 -0.0297867 0
0.00451763 -0.0518808 0
0.0019248 -0.0518243 0
-0.000582069 -0.02943 0
-0.00134382 -0.000843694 0
-0.00353881 -0.000327664 0
-0.00363526 1.33102e-05 0
-0.00249545 0.000181817 0
-0.00098543 0.000177649 0
0 0 0
      </DataArray> 
      <DataArray type="Float64" NumberOfComponents="3" Name="Velocity" format="ascii">
0 0 0
0 0 0
0 0 0
0 0 0
0 0 0
0 0 0
0 0 0
0 0 0
0 0 0
0 0 0
0 0 0
0 0 0
0 0 0
0 0 0
0 0 0
0 0 0
0 0 0
0 0 0
0 0 0
0 0 0
0 0 0
0 0 0
0 0 0
0 0 0
0 0 0
0 0 0
0 0 0
0 0 0
0 0 0
0 0 0
0 0 0
0 0 0
0 0 0
0 0 0
0 0 0
0 0 0
      </DataArray> 
      <DataArray type="Float64" NumberOfComponents="3" Name="Acceleration" format="ascii">
0 0 0
0 0 0
0 0 0
0 0 0
0 0 0
0 0 0
0 0 0
0 0 0
0 0 0
0 0 0
0 0 0
0 0 0
0 0 0
0 0 0
0 0 0
0 0 0
0 0 0
0 0 0
0 0 0
0 0 0
0 0 0
0 0 0
0 0 0
0 0 0
0 0 0
0 0 0
0 0 0
0 0 0
0 0 0
0 0 0
0 0 0
0 0 0
0 0 0
0 0 0
0 0 0
0 0 0
      </DataArray> 
    </PointData>
    <CellData>
    </CellData>
  </Piece>
  </UnstructuredGrid>
</VTKFile>
