<?xml version="1.0"?>
<VTKFile type="UnstructuredGrid">
  <UnstructuredGrid>
  <Piece NumberOfPoints="36"  NumberOfCells="69">
    <Points>
      <DataArray type="Float64" NumberOfComponents="3" format="ascii">
0 0 0
-0.000429159 0.999918 0
-0.0010712 1.99991 0
-0.00156105 2.99997 0
-0.00153373 4.00011 0
-0.000579604 5.00032 0
0.00226828 6.00031 0
0.402267 5.99944 0
3.4025 5.98774 0
6.40202 5.97827 0
9.40084 5.97817 0
12.3997 5.98743 0
15.3992 5.99923 0
15.7992 6.00013 0
15.8019 4.99993 0
15.8025 3.9998 0
15.8022 2.99974 0
15.8015 1.99975 0
15.8006 0.99984 0
15.8 0 0
15.4 0 0
15.4006 1.00001 0
15.4015 1.99994 0
15.4023 2.9998 0
15.4025 3.99959 0
15.4019 4.99931 0
12.4023 4.98751 0
9.4019 4.97825 0
6.40081 4.97827 0
3.39974 4.98767 0
0.399386 4.99965 0
0.398478 3.99987 0
0.398451 3.00001 0
0.39894 2.00008 0
0.399582 1.00008 0
0.4 0 0
      </DataArray>
    </Points>
    <Cells>
      <DataArray type="Int32" Name="connectivity" format="ascii">
0 1
1 2
2 3
3 4
4 5
5 6
6 7
7 8
8 9
9 10
10 11
11 12
12 13
13 14
14 15
15 16
16 17
17 18
18 19
19 20
20 21
21 22
22 23
23 24
24 25
25 26
26 27
27 28
28 29
29 30
30 31
31 32
32 33
33 34
34 35
0 35
0 34
1 34
1 33
2 33
2 32
3 32
3 31
4 31
4 30
5 30
5 7
30 7
30 8
29 8
29 9
28 9
28 10
27 10
27 11
26 11
26 12
25 12
25 13
25 14
24 14
24 15
23 15
23 16
22 16
22 17
21 17
21 18
20 18
      </DataArray>
      <DataArray type="Int32" Name="offsets" format="ascii">
2
4
6
8
10
12
14
16
18
20
22
24
26
28
30
32
34
36
38
40
42
44
46
48
50
52
54
56
58
60
62
64
66
68
70
72
74
76
78
80
82
84
86
88
90
92
94
96
98
100
102
104
106
108
110
112
114
116
118
120
122
124
126
128
130
132
134
136
138
      </DataArray>
      <DataArray type="UInt8" Name="types" format="ascii">
4
4
4
4
4
4
4
4
4
4
4
4
4
4
4
4
4
4
4
4
4
4
4
4
4
4
4
4
4
4
4
4
4
4
4
4
4
4
4
4
4
4
4
4
4
4
4
4
4
4
4
4
4
4
4
4
4
4
4
4
4
4
4
4
4
4
4
4
4
      </DataArray>
    </Cells>
    <PointData>
      <DataArray type="Float64" NumberOfComponents="3" Name="Displacement" format="ascii">
0 0 0
-0.000429159 -8.2177e-05 0
-0.0010712 -9.15032e-05 0
-0.00156105 -2.78298e-05 0
-0.00153373 0.000108753 0
-0.000579604 0.0003175 0
0.00226828 0.000313445 0
0.00226732 -0.000564206 0
0.00249565 -0.012259 0
0.00201891 -0.02173 0
0.000843457 -0.0218347 0
-0.000347128 -0.0125695 0
-0.000835306 -0.00077461 0
-0.000803554 0.000131647 0
0.0018926 -6.95364e-05 0
0.00249962 -0.000201515 0
0.00224778 -0.0002608 0
0.00150182 -0.000246875 0
0.000626925 -0.000159835 0
0 0 0
0 0 0
0.000638642 7.59384e-06 0
0.00151355 -5.79955e-05 0
0.00225947 -0.000196481 0
0.00251138 -0.000407643 0
0.00190489 -0.000691734 0
0.00226075 -0.012487 0
0.00189704 -0.0217541 0
0.000809196 -0.0217282 0
-0.000262879 -0.0123342 0
-0.000613815 -0.000350535 0
-0.00152223 -0.000134347 0
-0.00154942 8.55651e-06 0
-0.00105957 7.86274e-05 0
-0.000417525 7.58233e-05 0
0 0 0
      </DataArray> 
      <DataArray type="Float64" NumberOfComponents="3" Name="Velocity" format="ascii">
0 0 0
0 0 0
0 0 0
0 0 0
0 0 0
0 0 0
0 0 0
0 0 0
0 0 0
0 0 0
0 0 0
0 0 0
0 0 0
0 0 0
0 0 0
0 0 0
0 0 0
0 0 0
0 0 0
0 0 0
0 0 0
0 0 0
0 0 0
0 0 0
0 0 0
0 0 0
0 0 0
0 0 0
0 0 0
0 0 0
0 0 0
0 0 0
0 0 0
0 0 0
0 0 0
0 0 0
      </DataArray> 
      <DataArray type="Float64" NumberOfComponents="3" Name="Acceleration" format="ascii">
0 0 0
0 0 0
0 0 0
0 0 0
0 0 0
0 0 0
0 0 0
0 0 0
0 0 0
0 0 0
0 0 0
0 0 0
0 0 0
0 0 0
0 0 0
0 0 0
0 0 0
0 0 0
0 0 0
0 0 0
0 0 0
0 0 0
0 0 0
0 0 0
0 0 0
0 0 0
0 0 0
0 0 0
0 0 0
0 0 0
0 0 0
0 0 0
0 0 0
0 0 0
0 0 0
0 0 0
      </DataArray> 
    </PointData>
    <CellData>
    </CellData>
  </Piece>
  </UnstructuredGrid>
</VTKFile>
