<?xml version="1.0"?>
<VTKFile type="UnstructuredGrid">
  <UnstructuredGrid>
  <Piece NumberOfPoints="36"  NumberOfCells="69">
    <Points>
      <DataArray type="Float64" NumberOfComponents="3" format="ascii">
0 0 0
-0.00831596 0.998913 0
-0.0207368 1.99848 0
-0.033793 2.99872 0
-0.0440034 3.99969 0
-0.0472712 5.01296 0
0.0394515 6.00919 0
0.439192 5.9948 0
3.428 5.71322 0
6.41331 5.44206 0
9.40608 5.40341 0
12.3852 5.69192 0
15.3678 5.9926 0
15.7675 6.01456 0
15.8272 4.999 0
15.8293 3.99781 0
15.8242 2.99731 0
15.8153 1.99752 0
15.806 0.998431 0
15.8 0 0
15.4 0 0
15.4061 1.00036 0
15.4154 2.00001 0
15.4243 2.99898 0
15.4294 3.99729 0
15.4274 4.99492 0
12.4455 4.69425 0
9.45784 4.40548 0
6.39335 4.44242 0
3.34046 4.71656 0
0.352194 5.00035 0
0.356097 4.00185 0
0.366297 3.00271 0
0.379349 2.0029 0
0.391778 1.00239 0
0.4 0 0
      </DataArray>
    </Points>
    <Cells>
      <DataArray type="Int32" Name="connectivity" format="ascii">
0 1
1 2
2 3
3 4
4 5
5 6
6 7
7 8
8 9
9 10
10 11
11 12
12 13
13 14
14 15
15 16
16 17
17 18
18 19
19 20
20 21
21 22
22 23
23 24
24 25
25 26
26 27
27 28
28 29
29 30
30 31
31 32
32 33
33 34
34 35
0 35
0 34
1 34
1 33
2 33
2 32
3 32
3 31
4 31
4 30
5 30
5 7
30 7
30 8
29 8
29 9
28 9
28 10
27 10
27 11
26 11
26 12
25 12
25 13
25 14
24 14
24 15
23 15
23 16
22 16
22 17
21 17
21 18
20 18
      </DataArray>
      <DataArray type="Int32" Name="offsets" format="ascii">
2
4
6
8
10
12
14
16
18
20
22
24
26
28
30
32
34
36
38
40
42
44
46
48
50
52
54
56
58
60
62
64
66
68
70
72
74
76
78
80
82
84
86
88
90
92
94
96
98
100
102
104
106
108
110
112
114
116
118
120
122
124
126
128
130
132
134
136
138
      </DataArray>
      <DataArray type="UInt8" Name="types" format="ascii">
4
4
4
4
4
4
4
4
4
4
4
4
4
4
4
4
4
4
4
4
4
4
4
4
4
4
4
4
4
4
4
4
4
4
4
4
4
4
4
4
4
4
4
4
4
4
4
4
4
4
4
4
4
4
4
4
4
4
4
4
4
4
4
4
4
4
4
4
4
      </DataArray>
    </Cells>
    <PointData>
      <DataArray type="Float64" NumberOfComponents="3" Name="Displacement" format="ascii">
0 0 0
-0.00831596 -0.00108688 0
-0.0207368 -0.00152305 0
-0.033793 -0.0012752 0
-0.0440034 -0.000307334 0
-0.0472712 0.0129596 0
0.0394515 0.00919205 0
0.0391925 -0.00520074 0
0.0280018 -0.286784 0
0.0133089 -0.557943 0
0.00607585 -0.596586 0
-0.0147582 -0.308079 0
-0.0321924 -0.00739779 0
-0.0324965 0.0145609 0
0.0272432 -0.000999094 0
0.0293192 -0.00218995 0
0.0241779 -0.00268923 0
0.015257 -0.00247502 0
0.00601027 -0.00156862 0
0 0 0
0 0 0
0.00612556 0.000363291 0
0.0153749 1.48881e-05 0
0.0242922 -0.00101969 0
0.0294324 -0.00271424 0
0.0274145 -0.0050775 0
0.0455093 -0.305751 0
0.0578441 -0.594516 0
-0.00664943 -0.557584 0
-0.0595375 -0.283437 0
-0.0478056 0.000351098 0
-0.0439028 0.00185214 0
-0.033703 0.00270573 0
-0.0206506 0.00289915 0
-0.00822222 0.00239392 0
0 0 0
      </DataArray> 
      <DataArray type="Float64" NumberOfComponents="3" Name="Velocity" format="ascii">
0 0 0
0 0 0
0 0 0
0 0 0
0 0 0
0 0 0
0 0 0
0 0 0
0 0 0
0 0 0
0 0 0
0 0 0
0 0 0
0 0 0
0 0 0
0 0 0
0 0 0
0 0 0
0 0 0
0 0 0
0 0 0
0 0 0
0 0 0
0 0 0
0 0 0
0 0 0
0 0 0
0 0 0
0 0 0
0 0 0
0 0 0
0 0 0
0 0 0
0 0 0
0 0 0
0 0 0
      </DataArray> 
      <DataArray type="Float64" NumberOfComponents="3" Name="Acceleration" format="ascii">
0 0 0
0 0 0
0 0 0
0 0 0
0 0 0
0 0 0
0 0 0
0 0 0
0 0 0
0 0 0
0 0 0
0 0 0
0 0 0
0 0 0
0 0 0
0 0 0
0 0 0
0 0 0
0 0 0
0 0 0
0 0 0
0 0 0
0 0 0
0 0 0
0 0 0
0 0 0
0 0 0
0 0 0
0 0 0
0 0 0
0 0 0
0 0 0
0 0 0
0 0 0
0 0 0
0 0 0
      </DataArray> 
    </PointData>
    <CellData>
    </CellData>
  </Piece>
  </UnstructuredGrid>
</VTKFile>
