<?xml version="1.0"?>
<VTKFile type="UnstructuredGrid">
  <UnstructuredGrid>
  <Piece NumberOfPoints="36"  NumberOfCells="69">
    <Points>
      <DataArray type="Float64" NumberOfComponents="3" format="ascii">
0 0 0
-0.00272655 0.999528 0
-0.00700031 1.99946 0
-0.0107719 2.9998 0
-0.0119913 4.00055 0
-0.00836631 5.0017 0
0.00782705 6.00157 0
0.407805 5.99737 0
3.40855 5.93495 0
6.4065 5.87878 0
9.40206 5.87855 0
12.3971 5.9335 0
15.395 5.99599 0
15.7952 6.00092 0
15.8103 4.99984 0
15.8137 3.99906 0
15.8123 2.99868 0
15.8082 1.99871 0
15.8034 0.999153 0
15.8 0 0
15.4 0 0
15.4034 1.00011 0
15.4083 1.9998 0
15.4124 2.99908 0
15.4138 3.99797 0
15.4104 4.99644 0
12.413 4.93395 0
9.41244 4.87895 0
6.40197 4.87882 0
3.39179 4.93477 0
0.391431 4.99867 0
0.388071 3.99976 0
0.389292 3.00043 0
0.393063 2.00069 0
0.397337 1.00055 0
0.4 0 0
      </DataArray>
    </Points>
    <Cells>
      <DataArray type="Int32" Name="connectivity" format="ascii">
0 1
1 2
2 3
3 4
4 5
5 6
6 7
7 8
8 9
9 10
10 11
11 12
12 13
13 14
14 15
15 16
16 17
17 18
18 19
19 20
20 21
21 22
22 23
23 24
24 25
25 26
26 27
27 28
28 29
29 30
30 31
31 32
32 33
33 34
34 35
0 35
0 34
1 34
1 33
2 33
2 32
3 32
3 31
4 31
4 30
5 30
5 7
30 7
30 8
29 8
29 9
28 9
28 10
27 10
27 11
26 11
26 12
25 12
25 13
25 14
24 14
24 15
23 15
23 16
22 16
22 17
21 17
21 18
20 18
      </DataArray>
      <DataArray type="Int32" Name="offsets" format="ascii">
2
4
6
8
10
12
14
16
18
20
22
24
26
28
30
32
34
36
38
40
42
44
46
48
50
52
54
56
58
60
62
64
66
68
70
72
74
76
78
80
82
84
86
88
90
92
94
96
98
100
102
104
106
108
110
112
114
116
118
120
122
124
126
128
130
132
134
136
138
      </DataArray>
      <DataArray type="UInt8" Name="types" format="ascii">
4
4
4
4
4
4
4
4
4
4
4
4
4
4
4
4
4
4
4
4
4
4
4
4
4
4
4
4
4
4
4
4
4
4
4
4
4
4
4
4
4
4
4
4
4
4
4
4
4
4
4
4
4
4
4
4
4
4
4
4
4
4
4
4
4
4
4
4
4
      </DataArray>
    </Cells>
    <PointData>
      <DataArray type="Float64" NumberOfComponents="3" Name="Displacement" format="ascii">
0 0 0
-0.00272655 -0.000471839 0
-0.00700031 -0.000540107 0
-0.0107719 -0.00019843 0
-0.0119913 0.000554849 0
-0.00836631 0.00170398 0
0.00782705 0.00157286 0
0.00780502 -0.00262554 0
0.00854506 -0.0650476 0
0.00650318 -0.12122 0
0.00206471 -0.121449 0
-0.00285913 -0.0665006 0
-0.00500109 -0.00400588 0
-0.00484066 0.000919496 0
0.0103116 -0.000156487 0
0.0136984 -0.000940555 0
0.0123097 -0.00132411 0
0.00818631 -0.00129199 0
0.00337772 -0.00084746 0
0 0 0
0 0 0
0.00344439 0.00010577 0
0.00825326 -0.000203222 0
0.0123757 -0.000918399 0
0.0137665 -0.00203376 0
0.0103961 -0.0035584 0
0.0129522 -0.0660499 0
0.0124382 -0.121046 0
0.00196679 -0.121184 0
-0.00820587 -0.0652284 0
-0.00856921 -0.00132542 0
-0.0119291 -0.000243707 0
-0.0107078 0.000425551 0
-0.00693689 0.000692262 0
-0.00266278 0.000552347 0
0 0 0
      </DataArray> 
      <DataArray type="Float64" NumberOfComponents="3" Name="Velocity" format="ascii">
0 0 0
0 0 0
0 0 0
0 0 0
0 0 0
0 0 0
0 0 0
0 0 0
0 0 0
0 0 0
0 0 0
0 0 0
0 0 0
0 0 0
0 0 0
0 0 0
0 0 0
0 0 0
0 0 0
0 0 0
0 0 0
0 0 0
0 0 0
0 0 0
0 0 0
0 0 0
0 0 0
0 0 0
0 0 0
0 0 0
0 0 0
0 0 0
0 0 0
0 0 0
0 0 0
0 0 0
      </DataArray> 
      <DataArray type="Float64" NumberOfComponents="3" Name="Acceleration" format="ascii">
0 0 0
0 0 0
0 0 0
0 0 0
0 0 0
0 0 0
0 0 0
0 0 0
0 0 0
0 0 0
0 0 0
0 0 0
0 0 0
0 0 0
0 0 0
0 0 0
0 0 0
0 0 0
0 0 0
0 0 0
0 0 0
0 0 0
0 0 0
0 0 0
0 0 0
0 0 0
0 0 0
0 0 0
0 0 0
0 0 0
0 0 0
0 0 0
0 0 0
0 0 0
0 0 0
0 0 0
      </DataArray> 
    </PointData>
    <CellData>
    </CellData>
  </Piece>
  </UnstructuredGrid>
</VTKFile>
