<?xml version="1.0"?>
<VTKFile type="UnstructuredGrid">
  <UnstructuredGrid>
  <Piece NumberOfPoints="36"  NumberOfCells="69">
    <Points>
      <DataArray type="Float64" NumberOfComponents="3" format="ascii">
0 0 0
-0.00100869 0.999807 0
-0.00251243 1.99979 0
-0.00364762 2.99994 0
-0.00355103 4.00026 0
-0.00125573 5.00075 0
0.00551298 6.00073 0
0.405508 5.99864 0
3.40597 5.97086 0
6.40479 5.94839 0
9.402 5.94814 0
12.3991 5.97013 0
15.3979 5.99814 0
15.798 6.0003 0
15.8044 4.99984 0
15.8058 3.99953 0
15.8053 2.99939 0
15.8035 1.99942 0
15.8015 0.999623 0
15.8 0 0
15.4 0 0
15.4015 1.00002 0
15.4036 1.99986 0
15.4053 2.99953 0
15.4059 3.99903 0
15.4044 4.99835 0
12.4053 4.97034 0
9.4045 4.94834 0
6.40192 4.9484 0
3.39942 4.9707 0
0.398661 4.99916 0
0.396476 3.99967 0
0.39638 3.00001 0
0.397515 2.00018 0
0.399019 1.00018 0
0.4 0 0
      </DataArray>
    </Points>
    <Cells>
      <DataArray type="Int32" Name="connectivity" format="ascii">
0 1
1 2
2 3
3 4
4 5
5 6
6 7
7 8
8 9
9 10
10 11
11 12
12 13
13 14
14 15
15 16
16 17
17 18
18 19
19 20
20 21
21 22
22 23
23 24
24 25
25 26
26 27
27 28
28 29
29 30
30 31
31 32
32 33
33 34
34 35
0 35
0 34
1 34
1 33
2 33
2 32
3 32
3 31
4 31
4 30
5 30
5 7
30 7
30 8
29 8
29 9
28 9
28 10
27 10
27 11
26 11
26 12
25 12
25 13
25 14
24 14
24 15
23 15
23 16
22 16
22 17
21 17
21 18
20 18
      </DataArray>
      <DataArray type="Int32" Name="offsets" format="ascii">
2
4
6
8
10
12
14
16
18
20
22
24
26
28
30
32
34
36
38
40
42
44
46
48
50
52
54
56
58
60
62
64
66
68
70
72
74
76
78
80
82
84
86
88
90
92
94
96
98
100
102
104
106
108
110
112
114
116
118
120
122
124
126
128
130
132
134
136
138
      </DataArray>
      <DataArray type="UInt8" Name="types" format="ascii">
4
4
4
4
4
4
4
4
4
4
4
4
4
4
4
4
4
4
4
4
4
4
4
4
4
4
4
4
4
4
4
4
4
4
4
4
4
4
4
4
4
4
4
4
4
4
4
4
4
4
4
4
4
4
4
4
4
4
4
4
4
4
4
4
4
4
4
4
4
      </DataArray>
    </Cells>
    <PointData>
      <DataArray type="Float64" NumberOfComponents="3" Name="Displacement" format="ascii">
0 0 0
-0.00100869 -0.00019292 0
-0.00251243 -0.000214008 0
-0.00364762 -6.24477e-05 0
-0.00355103 0.000261221 0
-0.00125573 0.000752769 0
0.00551298 0.000729861 0
0.00550753 -0.00135946 0
0.00597239 -0.0291392 0
0.00479075 -0.0516141 0
0.00199811 -0.0518569 0
-0.000876278 -0.0298671 0
-0.00211196 -0.00185614 0
-0.00204027 0.000302768 0
0.00437292 -0.000160893 0
0.00584577 -0.000473311 0
0.00527932 -0.000614872 0
0.00353542 -0.000582628 0
0.00147824 -0.000377076 0
0 0 0
0 0 0
0.00150606 1.56158e-05 0
0.00356329 -0.00014243 0
0.00530702 -0.000472531 0
0.00587386 -0.000973494 0
0.00440401 -0.00164676 0
0.00531908 -0.02966 0
0.00449846 -0.0516602 0
0.00191665 -0.0516038 0
-0.000579921 -0.0293047 0
-0.00133898 -0.000840049 0
-0.00352443 -0.000326218 0
-0.00362024 1.33051e-05 0
-0.00248506 0.000181085 0
-0.000981314 0.000176916 0
0 0 0
      </DataArray> 
      <DataArray type="Float64" NumberOfComponents="3" Name="Velocity" format="ascii">
0 0 0
0 0 0
0 0 0
0 0 0
0 0 0
0 0 0
0 0 0
0 0 0
0 0 0
0 0 0
0 0 0
0 0 0
0 0 0
0 0 0
0 0 0
0 0 0
0 0 0
0 0 0
0 0 0
0 0 0
0 0 0
0 0 0
0 0 0
0 0 0
0 0 0
0 0 0
0 0 0
0 0 0
0 0 0
0 0 0
0 0 0
0 0 0
0 0 0
0 0 0
0 0 0
0 0 0
      </DataArray> 
      <DataArray type="Float64" NumberOfComponents="3" Name="Acceleration" format="ascii">
0 0 0
0 0 0
0 0 0
0 0 0
0 0 0
0 0 0
0 0 0
0 0 0
0 0 0
0 0 0
0 0 0
0 0 0
0 0 0
0 0 0
0 0 0
0 0 0
0 0 0
0 0 0
0 0 0
0 0 0
0 0 0
0 0 0
0 0 0
0 0 0
0 0 0
0 0 0
0 0 0
0 0 0
0 0 0
0 0 0
0 0 0
0 0 0
0 0 0
0 0 0
0 0 0
0 0 0
      </DataArray> 
    </PointData>
    <CellData>
    </CellData>
  </Piece>
  </UnstructuredGrid>
</VTKFile>
