<?xml version="1.0"?>
<VTKFile type="UnstructuredGrid">
  <UnstructuredGrid>
  <Piece NumberOfPoints="36"  NumberOfCells="69">
    <Points>
      <DataArray type="Float64" NumberOfComponents="3" format="ascii">
0 0 0
-0.00429747 0.999153 0
-0.0118537 1.99884 0
-0.0199226 2.99906 0
-0.0257505 3.99985 0
-0.0262512 5.00424 0
0.0103591 6.00357 0
0.410312 5.99743 0
3.40927 5.87109 0
6.40507 5.75237 0
9.39972 5.75067 0
12.3921 5.86827 0
15.3877 5.99497 0
15.7878 6.00687 0
15.8212 4.99926 0
15.823 3.99831 0
15.8191 2.9979 0
15.8121 1.99806 0
15.8048 0.998762 0
15.8 0 0
15.4 0 0
15.4049 1.00028 0
15.4122 2.00001 0
15.4192 2.99918 0
15.4231 3.99783 0
15.4213 4.99594 0
12.4264 4.86925 0
9.42761 4.75151 0
6.39908 4.75245 0
3.37199 4.8714 0
0.373484 4.99948 0
0.374334 4.00066 0
0.380158 3.00131 0
0.388226 2.00143 0
0.395785 1.001 0
0.4 0 0
      </DataArray>
    </Points>
    <Cells>
      <DataArray type="Int32" Name="connectivity" format="ascii">
0 1
1 2
2 3
3 4
4 5
5 6
6 7
7 8
8 9
9 10
10 11
11 12
12 13
13 14
14 15
15 16
16 17
17 18
18 19
19 20
20 21
21 22
22 23
23 24
24 25
25 26
26 27
27 28
28 29
29 30
30 31
31 32
32 33
33 34
34 35
0 35
0 34
1 34
1 33
2 33
2 32
3 32
3 31
4 31
4 30
5 30
5 7
30 7
30 8
29 8
29 9
28 9
28 10
27 10
27 11
26 11
26 12
25 12
25 13
25 14
24 14
24 15
23 15
23 16
22 16
22 17
21 17
21 18
20 18
      </DataArray>
      <DataArray type="Int32" Name="offsets" format="ascii">
2
4
6
8
10
12
14
16
18
20
22
24
26
28
30
32
34
36
38
40
42
44
46
48
50
52
54
56
58
60
62
64
66
68
70
72
74
76
78
80
82
84
86
88
90
92
94
96
98
100
102
104
106
108
110
112
114
116
118
120
122
124
126
128
130
132
134
136
138
      </DataArray>
      <DataArray type="UInt8" Name="types" format="ascii">
4
4
4
4
4
4
4
4
4
4
4
4
4
4
4
4
4
4
4
4
4
4
4
4
4
4
4
4
4
4
4
4
4
4
4
4
4
4
4
4
4
4
4
4
4
4
4
4
4
4
4
4
4
4
4
4
4
4
4
4
4
4
4
4
4
4
4
4
4
      </DataArray>
    </Cells>
    <PointData>
      <DataArray type="Float64" NumberOfComponents="3" Name="Displacement" format="ascii">
0 0 0
-0.00429747 -0.000846827 0
-0.0118537 -0.00116417 0
-0.0199226 -0.00093742 0
-0.0257505 -0.000150297 0
-0.0262512 0.00423782 0
0.0103591 0.00356743 0
0.010312 -0.00256804 0
0.00926786 -0.128915 0
0.00507051 -0.247628 0
-0.00028344 -0.249332 0
-0.00787855 -0.131728 0
-0.0122956 -0.0050293 0
-0.0122331 0.00686902 0
0.0212156 -0.000737587 0
0.0230365 -0.00169383 0
0.0190763 -0.00210115 0
0.0120714 -0.00194495 0
0.00476818 -0.00123827 0
0 0 0
0 0 0
0.00485902 0.000284105 0
0.0121638 5.94751e-06 0
0.0191665 -0.000818357 0
0.0231261 -0.00217255 0
0.0213345 -0.00406278 0
0.0264223 -0.130745 0
0.0276051 -0.248489 0
-0.000918449 -0.247545 0
-0.0280125 -0.128602 0
-0.0265156 -0.000522399 0
-0.0256663 0.000660123 0
-0.0198418 0.00131132 0
-0.0117745 0.00142925 0
-0.0042152 0.000996043 0
0 0 0
      </DataArray> 
      <DataArray type="Float64" NumberOfComponents="3" Name="Velocity" format="ascii">
0 0 0
0 0 0
0 0 0
0 0 0
0 0 0
0 0 0
0 0 0
0 0 0
0 0 0
0 0 0
0 0 0
0 0 0
0 0 0
0 0 0
0 0 0
0 0 0
0 0 0
0 0 0
0 0 0
0 0 0
0 0 0
0 0 0
0 0 0
0 0 0
0 0 0
0 0 0
0 0 0
0 0 0
0 0 0
0 0 0
0 0 0
0 0 0
0 0 0
0 0 0
0 0 0
0 0 0
      </DataArray> 
      <DataArray type="Float64" NumberOfComponents="3" Name="Acceleration" format="ascii">
0 0 0
0 0 0
0 0 0
0 0 0
0 0 0
0 0 0
0 0 0
0 0 0
0 0 0
0 0 0
0 0 0
0 0 0
0 0 0
0 0 0
0 0 0
0 0 0
0 0 0
0 0 0
0 0 0
0 0 0
0 0 0
0 0 0
0 0 0
0 0 0
0 0 0
0 0 0
0 0 0
0 0 0
0 0 0
0 0 0
0 0 0
0 0 0
0 0 0
0 0 0
0 0 0
0 0 0
      </DataArray> 
    </PointData>
    <CellData>
    </CellData>
  </Piece>
  </UnstructuredGrid>
</VTKFile>
