<?xml version="1.0"?>
<VTKFile type="UnstructuredGrid">
  <UnstructuredGrid>
  <Piece NumberOfPoints="36"  NumberOfCells="69">
    <Points>
      <DataArray type="Float64" NumberOfComponents="3" format="ascii">
0 0 0
-0.0102309 0.998869 0
-0.0244931 1.99847 0
-0.0388926 2.99884 0
-0.0495256 4.00057 0
-0.0500617 5.02114 0
0.0831229 6.01224 0
0.482457 5.98916 0
3.45458 5.56385 0
6.4232 5.15185 0
9.41386 5.08083 0
12.3719 5.52755 0
15.3332 5.9896 0
15.7322 6.02191 0
15.8188 5.00253 0
15.8311 3.99768 0
15.8261 2.99709 0
15.8167 1.99729 0
15.8066 0.998277 0
15.8 0 0
15.4 0 0
15.4068 1.00035 0
15.4168 1.99989 0
15.4262 2.99868 0
15.4312 3.99673 0
15.4191 4.99397 0
12.4582 4.53189 0
9.48952 4.08474 0
6.39094 4.15265 0
3.32055 4.57229 0
0.348959 5.00022 0
0.350588 4.00202 0
0.361207 3.0031 0
0.3756 2.00346 0
0.38987 1.00303 0
0.4 0 0
      </DataArray>
    </Points>
    <Cells>
      <DataArray type="Int32" Name="connectivity" format="ascii">
0 1
1 2
2 3
3 4
4 5
5 6
6 7
7 8
8 9
9 10
10 11
11 12
12 13
13 14
14 15
15 16
16 17
17 18
18 19
19 20
20 21
21 22
22 23
23 24
24 25
25 26
26 27
27 28
28 29
29 30
30 31
31 32
32 33
33 34
34 35
0 35
0 34
1 34
1 33
2 33
2 32
3 32
3 31
4 31
4 30
5 30
5 7
30 7
30 8
29 8
29 9
28 9
28 10
27 10
27 11
26 11
26 12
25 12
25 13
25 14
24 14
24 15
23 15
23 16
22 16
22 17
21 17
21 18
20 18
      </DataArray>
      <DataArray type="Int32" Name="offsets" format="ascii">
2
4
6
8
10
12
14
16
18
20
22
24
26
28
30
32
34
36
38
40
42
44
46
48
50
52
54
56
58
60
62
64
66
68
70
72
74
76
78
80
82
84
86
88
90
92
94
96
98
100
102
104
106
108
110
112
114
116
118
120
122
124
126
128
130
132
134
136
138
      </DataArray>
      <DataArray type="UInt8" Name="types" format="ascii">
4
4
4
4
4
4
4
4
4
4
4
4
4
4
4
4
4
4
4
4
4
4
4
4
4
4
4
4
4
4
4
4
4
4
4
4
4
4
4
4
4
4
4
4
4
4
4
4
4
4
4
4
4
4
4
4
4
4
4
4
4
4
4
4
4
4
4
4
4
      </DataArray>
    </Cells>
    <PointData>
      <DataArray type="Float64" NumberOfComponents="3" Name="Displacement" format="ascii">
0 0 0
-0.0102309 -0.00113055 0
-0.0244931 -0.00153322 0
-0.0388926 -0.00116276 0
-0.0495256 0.000568296 0
-0.0500617 0.0211442 0
0.0831229 0.0122354 0
0.0824569 -0.0108388 0
0.054584 -0.436146 0
0.0232043 -0.84815 0
0.0138644 -0.919173 0
-0.0280867 -0.472449 0
-0.0668384 -0.0104019 0
-0.067808 0.02191 0
0.0187835 0.00252762 0
0.0310811 -0.00231971 0
0.026107 -0.00291334 0
0.0166713 -0.0027069 0
0.00663954 -0.0017235 0
0 0 0
0 0 0
0.00676862 0.000345636 0
0.0168029 -0.000105677 0
0.0262343 -0.00132218 0
0.0312138 -0.00327371 0
0.0190547 -0.00603485 0
0.0581914 -0.468108 0
0.0895236 -0.915262 0
-0.00906249 -0.847348 0
-0.0794528 -0.427713 0
-0.0510407 0.000219393 0
-0.0494115 0.00202205 0
-0.0387929 0.00310493 0
-0.0244002 0.00345772 0
-0.0101303 0.003034 0
0 0 0
      </DataArray> 
      <DataArray type="Float64" NumberOfComponents="3" Name="Velocity" format="ascii">
0 0 0
0 0 0
0 0 0
0 0 0
0 0 0
0 0 0
0 0 0
0 0 0
0 0 0
0 0 0
0 0 0
0 0 0
0 0 0
0 0 0
0 0 0
0 0 0
0 0 0
0 0 0
0 0 0
0 0 0
0 0 0
0 0 0
0 0 0
0 0 0
0 0 0
0 0 0
0 0 0
0 0 0
0 0 0
0 0 0
0 0 0
0 0 0
0 0 0
0 0 0
0 0 0
0 0 0
      </DataArray> 
      <DataArray type="Float64" NumberOfComponents="3" Name="Acceleration" format="ascii">
0 0 0
0 0 0
0 0 0
0 0 0
0 0 0
0 0 0
0 0 0
0 0 0
0 0 0
0 0 0
0 0 0
0 0 0
0 0 0
0 0 0
0 0 0
0 0 0
0 0 0
0 0 0
0 0 0
0 0 0
0 0 0
0 0 0
0 0 0
0 0 0
0 0 0
0 0 0
0 0 0
0 0 0
0 0 0
0 0 0
0 0 0
0 0 0
0 0 0
0 0 0
0 0 0
0 0 0
      </DataArray> 
    </PointData>
    <CellData>
    </CellData>
  </Piece>
  </UnstructuredGrid>
</VTKFile>
