<?xml version="1.0"?>
<VTKFile type="UnstructuredGrid">
  <UnstructuredGrid>
  <Piece NumberOfPoints="36"  NumberOfCells="69">
    <Points>
      <DataArray type="Float64" NumberOfComponents="3" format="ascii">
0 0 0
-0.00224173 0.999619 0
-0.00562331 1.99959 0
-0.00836062 2.99992 0
-0.00866989 4.0006 0
-0.00455363 5.00163 0
0.00891801 6.00154 0
0.408897 5.99745 0
3.40967 5.94415 0
6.4078 5.89732 0
9.40354 5.89674 0
12.3989 5.94269 0
15.3969 5.99651 0
15.7971 6.00069 0
15.8099 4.99975 0
15.8125 3.99909 0
15.8111 2.99878 0
15.8073 1.99883 0
15.803 0.99924 0
15.8 0 0
15.4 0 0
15.4031 1.00009 0
15.4074 1.99983 0
15.4111 2.9992 0
15.4126 3.99823 0
15.4099 4.99691 0
12.412 4.94308 0
9.41129 4.89709 0
6.40334 4.89735 0
3.39586 4.94394 0
0.395265 4.99858 0
0.391384 3.99958 0
0.391695 3.00022 0
0.394433 2.0005 0
0.397814 1.00043 0
0.4 0 0
      </DataArray>
    </Points>
    <Cells>
      <DataArray type="Int32" Name="connectivity" format="ascii">
0 1
1 2
2 3
3 4
4 5
5 6
6 7
7 8
8 9
9 10
10 11
11 12
12 13
13 14
14 15
15 16
16 17
17 18
18 19
19 20
20 21
21 22
22 23
23 24
24 25
25 26
26 27
27 28
28 29
29 30
30 31
31 32
32 33
33 34
34 35
0 35
0 34
1 34
1 33
2 33
2 32
3 32
3 31
4 31
4 30
5 30
5 7
30 7
30 8
29 8
29 9
28 9
28 10
27 10
27 11
26 11
26 12
25 12
25 13
25 14
24 14
24 15
23 15
23 16
22 16
22 17
21 17
21 18
20 18
      </DataArray>
      <DataArray type="Int32" Name="offsets" format="ascii">
2
4
6
8
10
12
14
16
18
20
22
24
26
28
30
32
34
36
38
40
42
44
46
48
50
52
54
56
58
60
62
64
66
68
70
72
74
76
78
80
82
84
86
88
90
92
94
96
98
100
102
104
106
108
110
112
114
116
118
120
122
124
126
128
130
132
134
136
138
      </DataArray>
      <DataArray type="UInt8" Name="types" format="ascii">
4
4
4
4
4
4
4
4
4
4
4
4
4
4
4
4
4
4
4
4
4
4
4
4
4
4
4
4
4
4
4
4
4
4
4
4
4
4
4
4
4
4
4
4
4
4
4
4
4
4
4
4
4
4
4
4
4
4
4
4
4
4
4
4
4
4
4
4
4
      </DataArray>
    </Cells>
    <PointData>
      <DataArray type="Float64" NumberOfComponents="3" Name="Displacement" format="ascii">
0 0 0
-0.00224173 -0.000381027 0
-0.00562331 -0.000409278 0
-0.00836062 -8.05656e-05 0
-0.00866989 0.000604508 0
-0.00455363 0.00163075 0
0.00891801 0.00154001 0
0.00889707 -0.00255265 0
0.0096673 -0.0558539 0
0.00779931 -0.10268 0
0.00353679 -0.103263 0
-0.00107577 -0.0573098 0
-0.00307517 -0.00348528 0
-0.00293419 0.000688723 0
0.00985472 -0.000245664 0
0.0125143 -0.000908253 0
0.0110712 -0.00121982 0
0.00730445 -0.00116957 0
0.00299953 -0.000760471 0
0 0 0
0 0 0
0.00305754 9.35717e-05 0
0.00736273 -0.000173927 0
0.0111287 -0.000795831 0
0.012573 -0.00176702 0
0.00992519 -0.00309342 0
0.0120431 -0.0569185 0
0.011293 -0.102909 0
0.0033381 -0.102651 0
-0.00414344 -0.056062 0
-0.00473522 -0.00141746 0
-0.00861631 -0.000419936 0
-0.00830451 0.000215571 0
-0.0055675 0.000498916 0
-0.00218581 0.000428392 0
0 0 0
      </DataArray> 
      <DataArray type="Float64" NumberOfComponents="3" Name="Velocity" format="ascii">
0 0 0
0 0 0
0 0 0
0 0 0
0 0 0
0 0 0
0 0 0
0 0 0
0 0 0
0 0 0
0 0 0
0 0 0
0 0 0
0 0 0
0 0 0
0 0 0
0 0 0
0 0 0
0 0 0
0 0 0
0 0 0
0 0 0
0 0 0
0 0 0
0 0 0
0 0 0
0 0 0
0 0 0
0 0 0
0 0 0
0 0 0
0 0 0
0 0 0
0 0 0
0 0 0
0 0 0
      </DataArray> 
      <DataArray type="Float64" NumberOfComponents="3" Name="Acceleration" format="ascii">
0 0 0
0 0 0
0 0 0
0 0 0
0 0 0
0 0 0
0 0 0
0 0 0
0 0 0
0 0 0
0 0 0
0 0 0
0 0 0
0 0 0
0 0 0
0 0 0
0 0 0
0 0 0
0 0 0
0 0 0
0 0 0
0 0 0
0 0 0
0 0 0
0 0 0
0 0 0
0 0 0
0 0 0
0 0 0
0 0 0
0 0 0
0 0 0
0 0 0
0 0 0
0 0 0
0 0 0
      </DataArray> 
    </PointData>
    <CellData>
    </CellData>
  </Piece>
  </UnstructuredGrid>
</VTKFile>
