<?xml version="1.0"?>
<VTKFile type="UnstructuredGrid">
  <UnstructuredGrid>
  <Piece NumberOfPoints="13"  NumberOfCells="23">
    <Points>
      <DataArray type="Float64" NumberOfComponents="3" format="ascii">
0 0 0
3.0218 0.112232 0
6.02925 0.36961 0
9.0197 0.737373 0
11.9942 1.1815 0
14.9565 1.6683 0
15.8651 2.32123 0
14.7989 2.65548 0
11.8459 2.16977 0
8.89158 1.72839 0
5.93254 1.36407 0
2.9678 1.10976 0
0 1 0
      </DataArray>
    </Points>
    <Cells>
      <DataArray type="Int32" Name="connectivity" format="ascii">
0 1
1 2
2 3
3 4
4 5
5 6
0 12
0 11
1 11
1 10
2 10
2 9
3 9
3 8
4 8
4 7
5 7
7 6
11 12
11 10
10 9
8 9
7 8
      </DataArray>
      <DataArray type="Int32" Name="offsets" format="ascii">
2
4
6
8
10
12
14
16
18
20
22
24
26
28
30
32
34
36
38
40
42
44
46
      </DataArray>
      <DataArray type="UInt8" Name="types" format="ascii">
4
4
4
4
4
4
4
4
4
4
4
4
4
4
4
4
4
4
4
4
4
4
4
      </DataArray>
    </Cells>
    <PointData>
      <DataArray type="Float64" NumberOfComponents="3" Name="Displacement" format="ascii">
0 0 0
0.0218022 0.112232 0
0.0292496 0.36961 0
0.0197007 0.737373 0
-0.00577153 1.1815 0
-0.0435109 1.6683 0
-0.134913 1.82123 0
-0.20107 1.65548 0
-0.154115 1.16977 0
-0.108416 0.728395 0
-0.0674646 0.364067 0
-0.0322023 0.109757 0
0 0 0
      </DataArray> 
    </PointData>
    <CellData>
    </CellData>
  </Piece>
  </UnstructuredGrid>
</VTKFile>
