<?xml version="1.0"?>
<VTKFile type="UnstructuredGrid">
  <UnstructuredGrid>
  <Piece NumberOfPoints="13"  NumberOfCells="23">
    <Points>
      <DataArray type="Float64" NumberOfComponents="3" format="ascii">
0 0 0
3.04876 0.362142 0
5.99752 1.15686 0
8.82824 2.25995 0
11.5549 3.56385 0
14.2106 4.97353 0
14.8695 5.88026 0
13.7533 5.86157 0
11.1221 4.46303 0
8.45027 3.18275 0
5.70799 2.10992 0
2.88505 1.34301 0
0 1 0
      </DataArray>
    </Points>
    <Cells>
      <DataArray type="Int32" Name="connectivity" format="ascii">
0 1
1 2
2 3
3 4
4 5
5 6
0 12
0 11
1 11
1 10
2 10
2 9
3 9
3 8
4 8
4 7
5 7
7 6
11 12
11 10
10 9
8 9
7 8
      </DataArray>
      <DataArray type="Int32" Name="offsets" format="ascii">
2
4
6
8
10
12
14
16
18
20
22
24
26
28
30
32
34
36
38
40
42
44
46
      </DataArray>
      <DataArray type="UInt8" Name="types" format="ascii">
4
4
4
4
4
4
4
4
4
4
4
4
4
4
4
4
4
4
4
4
4
4
4
      </DataArray>
    </Cells>
    <PointData>
      <DataArray type="Float64" NumberOfComponents="3" Name="Displacement" format="ascii">
0 0 0
0.0487632 0.362142 0
-0.00248224 1.15686 0
-0.171763 2.25995 0
-0.445122 3.56385 0
-0.789352 4.97353 0
-1.13048 5.38026 0
-1.24671 4.86157 0
-0.877886 3.46303 0
-0.549735 2.18275 0
-0.292009 1.10992 0
-0.114955 0.343011 0
0 0 0
      </DataArray> 
    </PointData>
    <CellData>
    </CellData>
  </Piece>
  </UnstructuredGrid>
</VTKFile>
