<?xml version="1.0"?>
<VTKFile type="UnstructuredGrid">
  <UnstructuredGrid>
  <Piece NumberOfPoints="13"  NumberOfCells="23">
    <Points>
      <DataArray type="Float64" NumberOfComponents="3" format="ascii">
0 0 0
3.04341 0.282449 0
6.02109 0.912216 0
8.92009 1.79606 0
11.7483 2.8493 0
14.5271 3.99378 0
15.2692 4.8329 0
14.1561 4.92151 0
11.3981 3.78418 0
8.61557 2.74636 0
5.78923 1.88207 0
2.91299 1.27005 0
0 1 0
      </DataArray>
    </Points>
    <Cells>
      <DataArray type="Int32" Name="connectivity" format="ascii">
0 1
1 2
2 3
3 4
4 5
5 6
0 12
0 11
1 11
1 10
2 10
2 9
3 9
3 8
4 8
4 7
5 7
7 6
11 12
11 10
10 9
8 9
7 8
      </DataArray>
      <DataArray type="Int32" Name="offsets" format="ascii">
2
4
6
8
10
12
14
16
18
20
22
24
26
28
30
32
34
36
38
40
42
44
46
      </DataArray>
      <DataArray type="UInt8" Name="types" format="ascii">
4
4
4
4
4
4
4
4
4
4
4
4
4
4
4
4
4
4
4
4
4
4
4
      </DataArray>
    </Cells>
    <PointData>
      <DataArray type="Float64" NumberOfComponents="3" Name="Displacement" format="ascii">
0 0 0
0.0434085 0.282449 0
0.0210945 0.912216 0
-0.0799118 1.79606 0
-0.251675 2.8493 0
-0.472936 3.99378 0
-0.730827 4.3329 0
-0.843892 3.92151 0
-0.601945 2.78418 0
-0.384433 1.74636 0
-0.210766 0.882067 0
-0.0870108 0.270053 0
0 0 0
      </DataArray> 
    </PointData>
    <CellData>
    </CellData>
  </Piece>
  </UnstructuredGrid>
</VTKFile>
