<?xml version="1.0"?>
<VTKFile type="UnstructuredGrid">
  <UnstructuredGrid>
  <Piece NumberOfPoints="13"  NumberOfCells="23">
    <Points>
      <DataArray type="Float64" NumberOfComponents="3" format="ascii">
0 0 0
3.00339 0.0155935 0
6.00581 0.0517866 0
9.0072 0.103812 0
12.0076 0.16691 0
15.0071 0.236281 0
15.9956 0.758825 0
14.9846 1.23598 0
11.9865 1.1666 0
8.98898 1.10356 0
5.99207 1.0516 0
2.99573 1.01547 0
0 1 0
      </DataArray>
    </Points>
    <Cells>
      <DataArray type="Int32" Name="connectivity" format="ascii">
0 1
1 2
2 3
3 4
4 5
5 6
0 12
0 11
1 11
1 10
2 10
2 9
3 9
3 8
4 8
4 7
5 7
7 6
11 12
11 10
10 9
8 9
7 8
      </DataArray>
      <DataArray type="Int32" Name="offsets" format="ascii">
2
4
6
8
10
12
14
16
18
20
22
24
26
28
30
32
34
36
38
40
42
44
46
      </DataArray>
      <DataArray type="UInt8" Name="types" format="ascii">
4
4
4
4
4
4
4
4
4
4
4
4
4
4
4
4
4
4
4
4
4
4
4
      </DataArray>
    </Cells>
    <PointData>
      <DataArray type="Float64" NumberOfComponents="3" Name="Displacement" format="ascii">
0 0 0
0.00338595 0.0155935 0
0.00580551 0.0517866 0
0.00720285 0.103812 0
0.0075974 0.16691 0
0.00706219 0.236281 0
-0.00440551 0.258825 0
-0.0153832 0.235984 0
-0.0135269 0.166598 0
-0.0110172 0.103556 0
-0.00792582 0.0515997 0
-0.00427178 0.0154683 0
0 0 0
      </DataArray> 
    </PointData>
    <CellData>
    </CellData>
  </Piece>
  </UnstructuredGrid>
</VTKFile>
