<?xml version="1.0"?>
<VTKFile type="UnstructuredGrid">
  <UnstructuredGrid>
  <Piece NumberOfPoints="13"  NumberOfCells="23">
    <Points>
      <DataArray type="Float64" NumberOfComponents="3" format="ascii">
0 0 0
3.04708 0.594518 0
5.86796 1.82917 0
8.44041 3.478 0
10.807 5.37486 0
13.0419 7.39254 0
13.4634 8.43299 0
12.3851 8.14426 0
10.1807 6.15031 0
7.88418 4.30333 0
5.43213 2.721 0
2.79553 1.55033 0
0 1 0
      </DataArray>
    </Points>
    <Cells>
      <DataArray type="Int32" Name="connectivity" format="ascii">
0 1
1 2
2 3
3 4
4 5
5 6
0 12
0 11
1 11
1 10
2 10
2 9
3 9
3 8
4 8
4 7
5 7
7 6
11 12
11 10
10 9
8 9
7 8
      </DataArray>
      <DataArray type="Int32" Name="offsets" format="ascii">
2
4
6
8
10
12
14
16
18
20
22
24
26
28
30
32
34
36
38
40
42
44
46
      </DataArray>
      <DataArray type="UInt8" Name="types" format="ascii">
4
4
4
4
4
4
4
4
4
4
4
4
4
4
4
4
4
4
4
4
4
4
4
      </DataArray>
    </Cells>
    <PointData>
      <DataArray type="Float64" NumberOfComponents="3" Name="Displacement" format="ascii">
0 0 0
0.0470806 0.594518 0
-0.132044 1.82917 0
-0.559594 3.478 0
-1.19299 5.37486 0
-1.9581 7.39254 0
-2.5366 7.93299 0
-2.61485 7.14426 0
-1.81932 5.15031 0
-1.11582 3.30333 0
-0.567872 1.721 0
-0.204469 0.55033 0
0 0 0
      </DataArray> 
    </PointData>
    <CellData>
    </CellData>
  </Piece>
  </UnstructuredGrid>
</VTKFile>
