<?xml version="1.0"?>
<VTKFile type="UnstructuredGrid">
  <UnstructuredGrid>
  <Piece NumberOfPoints="13"  NumberOfCells="23">
    <Points>
      <DataArray type="Float64" NumberOfComponents="3" format="ascii">
0 0 0
3.03643 0.214381 0
6.03156 0.698264 0
8.97698 1.38296 0
11.877 2.20385 0
14.7443 3.09935 0
15.5557 3.8709 0
14.4543 4.05568 0
11.6035 3.16442 0
8.73999 2.3529 0
5.85187 1.68 0
2.93572 1.20675 0
0 1 0
      </DataArray>
    </Points>
    <Cells>
      <DataArray type="Int32" Name="connectivity" format="ascii">
0 1
1 2
2 3
3 4
4 5
5 6
0 12
0 11
1 11
1 10
2 10
2 9
3 9
3 8
4 8
4 7
5 7
7 6
11 12
11 10
10 9
8 9
7 8
      </DataArray>
      <DataArray type="Int32" Name="offsets" format="ascii">
2
4
6
8
10
12
14
16
18
20
22
24
26
28
30
32
34
36
38
40
42
44
46
      </DataArray>
      <DataArray type="UInt8" Name="types" format="ascii">
4
4
4
4
4
4
4
4
4
4
4
4
4
4
4
4
4
4
4
4
4
4
4
      </DataArray>
    </Cells>
    <PointData>
      <DataArray type="Float64" NumberOfComponents="3" Name="Displacement" format="ascii">
0 0 0
0.0364305 0.214381 0
0.0315589 0.698264 0
-0.0230161 1.38296 0
-0.123003 2.20385 0
-0.255678 3.09935 0
-0.44429 3.3709 0
-0.54573 3.05568 0
-0.396481 2.16442 0
-0.260009 1.3529 0
-0.148129 0.680004 0
-0.0642763 0.206748 0
0 0 0
      </DataArray> 
    </PointData>
    <CellData>
    </CellData>
  </Piece>
  </UnstructuredGrid>
</VTKFile>
