<?xml version="1.0"?>
<VTKFile type="UnstructuredGrid">
  <UnstructuredGrid>
  <Piece NumberOfPoints="13"  NumberOfCells="23">
    <Points>
      <DataArray type="Float64" NumberOfComponents="3" format="ascii">
0 0 0
3.05084 0.424707 0
5.97104 1.34413 0
8.73946 2.60813 0
11.3762 4.09192 0
13.9249 5.68926 0
14.5182 6.64077 0
13.4062 6.54272 0
10.8845 4.95988 0
8.30823 3.50666 0
5.63891 2.28222 0
2.86212 1.39953 0
0 1 0
      </DataArray>
    </Points>
    <Cells>
      <DataArray type="Int32" Name="connectivity" format="ascii">
0 1
1 2
2 3
3 4
4 5
5 6
0 12
0 11
1 11
1 10
2 10
2 9
3 9
3 8
4 8
4 7
5 7
7 6
11 12
11 10
10 9
8 9
7 8
      </DataArray>
      <DataArray type="Int32" Name="offsets" format="ascii">
2
4
6
8
10
12
14
16
18
20
22
24
26
28
30
32
34
36
38
40
42
44
46
      </DataArray>
      <DataArray type="UInt8" Name="types" format="ascii">
4
4
4
4
4
4
4
4
4
4
4
4
4
4
4
4
4
4
4
4
4
4
4
      </DataArray>
    </Cells>
    <PointData>
      <DataArray type="Float64" NumberOfComponents="3" Name="Displacement" format="ascii">
0 0 0
0.0508418 0.424707 0
-0.0289587 1.34413 0
-0.260538 2.60813 0
-0.623813 4.09192 0
-1.07512 5.68926 0
-1.48183 6.14077 0
-1.5938 5.54272 0
-1.11554 3.95988 0
-0.691771 2.50666 0
-0.361091 1.28222 0
-0.137878 0.399534 0
0 0 0
      </DataArray> 
    </PointData>
    <CellData>
    </CellData>
  </Piece>
  </UnstructuredGrid>
</VTKFile>
