<?xml version="1.0"?>
<VTKFile type="UnstructuredGrid">
  <UnstructuredGrid>
  <Piece NumberOfPoints="13"  NumberOfCells="23">
    <Points>
      <DataArray type="Float64" NumberOfComponents="3" format="ascii">
0 0 0
3.04804 0.34805 0
6.00254 1.11408 0
8.8463 2.17955 0
11.5921 3.44087 0
14.2708 4.80577 0
14.9445 5.70143 0
13.8281 5.70123 0
11.1733 4.34673 0
8.48086 3.10751 0
5.72293 2.07032 0
2.89009 1.33019 0
0 1 0
      </DataArray>
    </Points>
    <Cells>
      <DataArray type="Int32" Name="connectivity" format="ascii">
0 1
1 2
2 3
3 4
4 5
5 6
0 12
0 11
1 11
1 10
2 10
2 9
3 9
3 8
4 8
4 7
5 7
7 6
11 12
11 10
10 9
8 9
7 8
      </DataArray>
      <DataArray type="Int32" Name="offsets" format="ascii">
2
4
6
8
10
12
14
16
18
20
22
24
26
28
30
32
34
36
38
40
42
44
46
      </DataArray>
      <DataArray type="UInt8" Name="types" format="ascii">
4
4
4
4
4
4
4
4
4
4
4
4
4
4
4
4
4
4
4
4
4
4
4
      </DataArray>
    </Cells>
    <PointData>
      <DataArray type="Float64" NumberOfComponents="3" Name="Displacement" format="ascii">
0 0 0
0.0480372 0.34805 0
0.00253718 1.11408 0
-0.153698 2.17955 0
-0.407922 3.44087 0
-0.729165 4.80577 0
-1.0555 5.20143 0
-1.17191 4.70123 0
-0.826697 3.34673 0
-0.519136 2.10751 0
-0.277068 1.07032 0
-0.109911 0.330193 0
0 0 0
      </DataArray> 
    </PointData>
    <CellData>
    </CellData>
  </Piece>
  </UnstructuredGrid>
</VTKFile>
