<?xml version="1.0"?>
<VTKFile type="UnstructuredGrid">
  <UnstructuredGrid>
  <Piece NumberOfPoints="13"  NumberOfCells="23">
    <Points>
      <DataArray type="Float64" NumberOfComponents="3" format="ascii">
0 0 0
3.01673 0.0831587 0
6.02443 0.274616 0
9.02162 0.548777 0
12.0089 0.880385 0
14.9882 1.24426 0
15.9223 1.85973 0
14.8704 2.23706 0
11.898 1.87374 0
8.92595 1.54366 0
5.95227 1.27142 0
2.97646 1.08167 0
0 1 0
      </DataArray>
    </Points>
    <Cells>
      <DataArray type="Int32" Name="connectivity" format="ascii">
0 1
1 2
2 3
3 4
4 5
5 6
0 12
0 11
1 11
1 10
2 10
2 9
3 9
3 8
4 8
4 7
5 7
7 6
11 12
11 10
10 9
8 9
7 8
      </DataArray>
      <DataArray type="Int32" Name="offsets" format="ascii">
2
4
6
8
10
12
14
16
18
20
22
24
26
28
30
32
34
36
38
40
42
44
46
      </DataArray>
      <DataArray type="UInt8" Name="types" format="ascii">
4
4
4
4
4
4
4
4
4
4
4
4
4
4
4
4
4
4
4
4
4
4
4
      </DataArray>
    </Cells>
    <PointData>
      <DataArray type="Float64" NumberOfComponents="3" Name="Displacement" format="ascii">
0 0 0
0.0167283 0.0831587 0
0.0244326 0.274616 0
0.0216166 0.548777 0
0.00885623 0.880385 0
-0.0118183 1.24426 0
-0.07771 1.35973 0
-0.129572 1.23706 0
-0.101985 0.873739 0
-0.0740537 0.543663 0
-0.0477326 0.271416 0
-0.0235431 0.081666 0
0 0 0
      </DataArray> 
    </PointData>
    <CellData>
    </CellData>
  </Piece>
  </UnstructuredGrid>
</VTKFile>
