<?xml version="1.0"?>
<VTKFile type="UnstructuredGrid">
  <UnstructuredGrid>
  <Piece NumberOfPoints="13"  NumberOfCells="23">
    <Points>
      <DataArray type="Float64" NumberOfComponents="3" format="ascii">
0 0 0
3.04784 0.581685 0
5.87719 1.79376 0
8.46542 3.41617 0
10.8532 5.28554 0
13.1122 7.27579 0
13.5462 8.31101 0
12.4645 8.03537 0
10.2358 6.06817 0
7.91767 4.24726 0
5.4486 2.6893 0
2.80079 1.53904 0
0 1 0
      </DataArray>
    </Points>
    <Cells>
      <DataArray type="Int32" Name="connectivity" format="ascii">
0 1
1 2
2 3
3 4
4 5
5 6
0 12
0 11
1 11
1 10
2 10
2 9
3 9
3 8
4 8
4 7
5 7
7 6
11 12
11 10
10 9
8 9
7 8
      </DataArray>
      <DataArray type="Int32" Name="offsets" format="ascii">
2
4
6
8
10
12
14
16
18
20
22
24
26
28
30
32
34
36
38
40
42
44
46
      </DataArray>
      <DataArray type="UInt8" Name="types" format="ascii">
4
4
4
4
4
4
4
4
4
4
4
4
4
4
4
4
4
4
4
4
4
4
4
      </DataArray>
    </Cells>
    <PointData>
      <DataArray type="Float64" NumberOfComponents="3" Name="Displacement" format="ascii">
0 0 0
0.0478442 0.581685 0
-0.122809 1.79376 0
-0.534575 3.41617 0
-1.14684 5.28554 0
-1.88779 7.27579 0
-2.45382 7.81101 0
-2.53549 7.03537 0
-1.76425 5.06817 0
-1.08233 3.24726 0
-0.551404 1.6893 0
-0.19921 0.539042 0
0 0 0
      </DataArray> 
    </PointData>
    <CellData>
    </CellData>
  </Piece>
  </UnstructuredGrid>
</VTKFile>
