<?xml version="1.0"?>
<VTKFile type="UnstructuredGrid">
  <UnstructuredGrid>
  <Piece NumberOfPoints="13"  NumberOfCells="23">
    <Points>
      <DataArray type="Float64" NumberOfComponents="3" format="ascii">
0 0 0
3.04973 0.541446 0
5.9047 1.68137 0
8.54161 3.21812 0
10.9952 4.99746 0
13.3299 6.89725 0
13.8036 7.91459 0
12.712 7.68141 0
10.407 5.80252 0
8.02143 4.06712 0
5.49942 2.58835 0
2.81704 1.50355 0
0 1 0
      </DataArray>
    </Points>
    <Cells>
      <DataArray type="Int32" Name="connectivity" format="ascii">
0 1
1 2
2 3
3 4
4 5
5 6
0 12
0 11
1 11
1 10
2 10
2 9
3 9
3 8
4 8
4 7
5 7
7 6
11 12
11 10
10 9
8 9
7 8
      </DataArray>
      <DataArray type="Int32" Name="offsets" format="ascii">
2
4
6
8
10
12
14
16
18
20
22
24
26
28
30
32
34
36
38
40
42
44
46
      </DataArray>
      <DataArray type="UInt8" Name="types" format="ascii">
4
4
4
4
4
4
4
4
4
4
4
4
4
4
4
4
4
4
4
4
4
4
4
      </DataArray>
    </Cells>
    <PointData>
      <DataArray type="Float64" NumberOfComponents="3" Name="Displacement" format="ascii">
0 0 0
0.0497307 0.541446 0
-0.0953001 1.68137 0
-0.458392 3.21812 0
-1.00483 4.99746 0
-1.67012 6.89725 0
-2.19644 7.41459 0
-2.28803 6.68141 0
-1.59298 4.80252 0
-0.978574 3.06712 0
-0.500579 1.58835 0
-0.182962 0.503547 0
0 0 0
      </DataArray> 
    </PointData>
    <CellData>
    </CellData>
  </Piece>
  </UnstructuredGrid>
</VTKFile>
