<?xml version="1.0"?>
<VTKFile type="UnstructuredGrid">
  <UnstructuredGrid>
  <Piece NumberOfPoints="13"  NumberOfCells="23">
    <Points>
      <DataArray type="Float64" NumberOfComponents="3" format="ascii">
0 0 0
3.05107 0.485797 0
5.93893 1.52265 0
8.64062 2.93388 0
11.1834 4.57879 0
13.6216 6.34202 0
14.1517 7.3307 0
13.0486 7.15975 0
10.639 5.41439 0
8.16116 3.80704 0
5.56749 2.4449 0
2.83891 1.45418 0
0 1 0
      </DataArray>
    </Points>
    <Cells>
      <DataArray type="Int32" Name="connectivity" format="ascii">
0 1
1 2
2 3
3 4
4 5
5 6
0 12
0 11
1 11
1 10
2 10
2 9
3 9
3 8
4 8
4 7
5 7
7 6
11 12
11 10
10 9
8 9
7 8
      </DataArray>
      <DataArray type="Int32" Name="offsets" format="ascii">
2
4
6
8
10
12
14
16
18
20
22
24
26
28
30
32
34
36
38
40
42
44
46
      </DataArray>
      <DataArray type="UInt8" Name="types" format="ascii">
4
4
4
4
4
4
4
4
4
4
4
4
4
4
4
4
4
4
4
4
4
4
4
      </DataArray>
    </Cells>
    <PointData>
      <DataArray type="Float64" NumberOfComponents="3" Name="Displacement" format="ascii">
0 0 0
0.0510699 0.485797 0
-0.061066 1.52265 0
-0.359378 2.93388 0
-0.816623 4.57879 0
-1.37836 6.34202 0
-1.84833 6.8307 0
-1.95139 6.15975 0
-1.36099 4.41439 0
-0.83884 2.80704 0
-0.432505 1.4449 0
-0.161094 0.454176 0
0 0 0
      </DataArray> 
    </PointData>
    <CellData>
    </CellData>
  </Piece>
  </UnstructuredGrid>
</VTKFile>
