<?xml version="1.0"?>
<VTKFile type="UnstructuredGrid">
  <UnstructuredGrid>
  <Piece NumberOfPoints="13"  NumberOfCells="23">
    <Points>
      <DataArray type="Float64" NumberOfComponents="3" format="ascii">
0 0 0
3.05014 0.529632 0
5.91235 1.64799 0
8.56328 3.15878 0
11.036 4.91055 0
13.3928 6.78249 0
13.8783 7.79413 0
12.7841 7.57383 0
10.4568 5.72215 0
8.05149 4.01297 0
5.5141 2.55827 0
2.82174 1.49309 0
0 1 0
      </DataArray>
    </Points>
    <Cells>
      <DataArray type="Int32" Name="connectivity" format="ascii">
0 1
1 2
2 3
3 4
4 5
5 6
0 12
0 11
1 11
1 10
2 10
2 9
3 9
3 8
4 8
4 7
5 7
7 6
11 12
11 10
10 9
8 9
7 8
      </DataArray>
      <DataArray type="Int32" Name="offsets" format="ascii">
2
4
6
8
10
12
14
16
18
20
22
24
26
28
30
32
34
36
38
40
42
44
46
      </DataArray>
      <DataArray type="UInt8" Name="types" format="ascii">
4
4
4
4
4
4
4
4
4
4
4
4
4
4
4
4
4
4
4
4
4
4
4
      </DataArray>
    </Cells>
    <PointData>
      <DataArray type="Float64" NumberOfComponents="3" Name="Displacement" format="ascii">
0 0 0
0.0501382 0.529632 0
-0.0876533 1.64799 0
-0.436723 3.15878 0
-0.964017 4.91055 0
-1.60718 6.78249 0
-2.12166 7.29413 0
-2.21592 6.57383 0
-1.5432 4.72215 0
-0.948514 3.01297 0
-0.485904 1.55827 0
-0.178262 0.493095 0
0 0 0
      </DataArray> 
    </PointData>
    <CellData>
    </CellData>
  </Piece>
  </UnstructuredGrid>
</VTKFile>
