<?xml version="1.0"?>
<VTKFile type="UnstructuredGrid">
  <UnstructuredGrid>
  <Piece NumberOfPoints="13"  NumberOfCells="23">
    <Points>
      <DataArray type="Float64" NumberOfComponents="3" format="ascii">
0 0 0
3.0458 0.613637 0
5.8538 1.88155 0
8.40254 3.56894 0
10.7376 5.50566 0
12.9365 7.56295 0
13.3396 8.61081 0
12.2667 8.30297 0
10.0983 6.27038 0
7.83398 4.38565 0
5.40737 2.76781 0
2.78762 1.56712 0
0 1 0
      </DataArray>
    </Points>
    <Cells>
      <DataArray type="Int32" Name="connectivity" format="ascii">
0 1
1 2
2 3
3 4
4 5
5 6
0 12
0 11
1 11
1 10
2 10
2 9
3 9
3 8
4 8
4 7
5 7
7 6
11 12
11 10
10 9
8 9
7 8
      </DataArray>
      <DataArray type="Int32" Name="offsets" format="ascii">
2
4
6
8
10
12
14
16
18
20
22
24
26
28
30
32
34
36
38
40
42
44
46
      </DataArray>
      <DataArray type="UInt8" Name="types" format="ascii">
4
4
4
4
4
4
4
4
4
4
4
4
4
4
4
4
4
4
4
4
4
4
4
      </DataArray>
    </Cells>
    <PointData>
      <DataArray type="Float64" NumberOfComponents="3" Name="Displacement" format="ascii">
0 0 0
0.0457978 0.613637 0
-0.146199 1.88155 0
-0.597462 3.56894 0
-1.26242 5.50566 0
-2.0635 7.56295 0
-2.66036 8.11081 0
-2.73334 7.30297 0
-1.90168 5.27038 0
-1.16602 3.38565 0
-0.592627 1.76781 0
-0.212375 0.567119 0
0 0 0
      </DataArray> 
    </PointData>
    <CellData>
    </CellData>
  </Piece>
  </UnstructuredGrid>
</VTKFile>
