<?xml version="1.0"?>
<VTKFile type="UnstructuredGrid">
  <UnstructuredGrid>
  <Piece NumberOfPoints="13"  NumberOfCells="23">
    <Points>
      <DataArray type="Float64" NumberOfComponents="3" format="ascii">
0 0 0
3.05082 0.423333 0
5.97169 1.34006 0
8.74155 2.60064 0
11.3803 4.08063 0
13.9315 5.67405 0
14.5262 6.62465 0
13.4141 6.52829 0
10.8898 4.9493 0
8.31145 3.49972 0
5.64047 2.2785 0
2.86263 1.3983 0
0 1 0
      </DataArray>
    </Points>
    <Cells>
      <DataArray type="Int32" Name="connectivity" format="ascii">
0 1
1 2
2 3
3 4
4 5
5 6
0 12
0 11
1 11
1 10
2 10
2 9
3 9
3 8
4 8
4 7
5 7
7 6
11 12
11 10
10 9
8 9
7 8
      </DataArray>
      <DataArray type="Int32" Name="offsets" format="ascii">
2
4
6
8
10
12
14
16
18
20
22
24
26
28
30
32
34
36
38
40
42
44
46
      </DataArray>
      <DataArray type="UInt8" Name="types" format="ascii">
4
4
4
4
4
4
4
4
4
4
4
4
4
4
4
4
4
4
4
4
4
4
4
      </DataArray>
    </Cells>
    <PointData>
      <DataArray type="Float64" NumberOfComponents="3" Name="Displacement" format="ascii">
0 0 0
0.0508162 0.423333 0
-0.0283055 1.34006 0
-0.258446 2.60064 0
-0.619668 4.08063 0
-1.06855 5.67405 0
-1.47383 6.12465 0
-1.58594 5.52829 0
-1.11015 3.9493 0
-0.68855 2.49972 0
-0.359527 1.2785 0
-0.137366 0.398298 0
0 0 0
      </DataArray> 
    </PointData>
    <CellData>
    </CellData>
  </Piece>
  </UnstructuredGrid>
</VTKFile>
