<?xml version="1.0"?>
<VTKFile type="UnstructuredGrid">
  <UnstructuredGrid>
  <Piece NumberOfPoints="13"  NumberOfCells="23">
    <Points>
      <DataArray type="Float64" NumberOfComponents="3" format="ascii">
0 0 0
3.0502 0.398465 0
5.98296 1.26611 0
8.77834 2.46386 0
11.4537 3.87403 0
14.0482 5.39487 0
14.6689 6.32845 0
13.5545 6.26312 0
10.9861 4.75536 0
8.36897 3.37281 0
5.66841 2.21066 0
2.87184 1.3759 0
0 1 0
      </DataArray>
    </Points>
    <Cells>
      <DataArray type="Int32" Name="connectivity" format="ascii">
0 1
1 2
2 3
3 4
4 5
5 6
0 12
0 11
1 11
1 10
2 10
2 9
3 9
3 8
4 8
4 7
5 7
7 6
11 12
11 10
10 9
8 9
7 8
      </DataArray>
      <DataArray type="Int32" Name="offsets" format="ascii">
2
4
6
8
10
12
14
16
18
20
22
24
26
28
30
32
34
36
38
40
42
44
46
      </DataArray>
      <DataArray type="UInt8" Name="types" format="ascii">
4
4
4
4
4
4
4
4
4
4
4
4
4
4
4
4
4
4
4
4
4
4
4
      </DataArray>
    </Cells>
    <PointData>
      <DataArray type="Float64" NumberOfComponents="3" Name="Displacement" format="ascii">
0 0 0
0.0501974 0.398465 0
-0.0170364 1.26611 0
-0.221662 2.46386 0
-0.546315 3.87403 0
-0.95181 5.39487 0
-1.33106 5.82845 0
-1.44546 5.26312 0
-1.01394 3.75536 0
-0.631031 2.37281 0
-0.331587 1.21066 0
-0.128159 0.3759 0
0 0 0
      </DataArray> 
    </PointData>
    <CellData>
    </CellData>
  </Piece>
  </UnstructuredGrid>
</VTKFile>
