<?xml version="1.0"?>
<VTKFile type="UnstructuredGrid">
  <UnstructuredGrid>
  <Piece NumberOfPoints="13"  NumberOfCells="23">
    <Points>
      <DataArray type="Float64" NumberOfComponents="3" format="ascii">
0 0 0
3.05026 0.52568 0
5.91486 1.63679 0
8.57045 3.13882 0
11.0495 4.88125 0
13.4138 6.74373 0
13.9033 7.75342 0
12.8081 7.53747 0
10.4734 5.69503 0
8.0615 3.99474 0
5.51898 2.54817 0
2.8233 1.4896 0
0 1 0
      </DataArray>
    </Points>
    <Cells>
      <DataArray type="Int32" Name="connectivity" format="ascii">
0 1
1 2
2 3
3 4
4 5
5 6
0 12
0 11
1 11
1 10
2 10
2 9
3 9
3 8
4 8
4 7
5 7
7 6
11 12
11 10
10 9
8 9
7 8
      </DataArray>
      <DataArray type="Int32" Name="offsets" format="ascii">
2
4
6
8
10
12
14
16
18
20
22
24
26
28
30
32
34
36
38
40
42
44
46
      </DataArray>
      <DataArray type="UInt8" Name="types" format="ascii">
4
4
4
4
4
4
4
4
4
4
4
4
4
4
4
4
4
4
4
4
4
4
4
      </DataArray>
    </Cells>
    <PointData>
      <DataArray type="Float64" NumberOfComponents="3" Name="Displacement" format="ascii">
0 0 0
0.0502597 0.52568 0
-0.0851405 1.63679 0
-0.429551 3.13882 0
-0.950462 4.88125 0
-1.58623 6.74373 0
-2.09674 7.25342 0
-2.19187 6.53747 0
-1.5266 4.69503 0
-0.938505 2.99474 0
-0.481022 1.54817 0
-0.176697 0.489596 0
0 0 0
      </DataArray> 
    </PointData>
    <CellData>
    </CellData>
  </Piece>
  </UnstructuredGrid>
</VTKFile>
