<?xml version="1.0"?>
<VTKFile type="UnstructuredGrid">
  <UnstructuredGrid>
  <Piece NumberOfPoints="13"  NumberOfCells="23">
    <Points>
      <DataArray type="Float64" NumberOfComponents="3" format="ascii">
0 0 0
3.05113 0.479084 0
5.94275 1.50325 0
8.65202 2.89879 0
11.2053 4.52669 0
13.6559 6.27252 0
14.1929 7.25741 0
13.0886 7.09424 0
10.6665 5.36591 0
8.17767 3.7748 0
5.57552 2.42729 0
2.8415 1.4482 0
0 1 0
      </DataArray>
    </Points>
    <Cells>
      <DataArray type="Int32" Name="connectivity" format="ascii">
0 1
1 2
2 3
3 4
4 5
5 6
0 12
0 11
1 11
1 10
2 10
2 9
3 9
3 8
4 8
4 7
5 7
7 6
11 12
11 10
10 9
8 9
7 8
      </DataArray>
      <DataArray type="Int32" Name="offsets" format="ascii">
2
4
6
8
10
12
14
16
18
20
22
24
26
28
30
32
34
36
38
40
42
44
46
      </DataArray>
      <DataArray type="UInt8" Name="types" format="ascii">
4
4
4
4
4
4
4
4
4
4
4
4
4
4
4
4
4
4
4
4
4
4
4
      </DataArray>
    </Cells>
    <PointData>
      <DataArray type="Float64" NumberOfComponents="3" Name="Displacement" format="ascii">
0 0 0
0.0511318 0.479084 0
-0.05725 1.50325 0
-0.347984 2.89879 0
-0.794669 4.52669 0
-1.34407 6.27252 0
-1.80715 6.75741 0
-1.91139 6.09424 0
-1.33348 4.36591 0
-0.822328 2.7748 0
-0.424481 1.42729 0
-0.158502 0.448195 0
0 0 0
      </DataArray> 
    </PointData>
    <CellData>
    </CellData>
  </Piece>
  </UnstructuredGrid>
</VTKFile>
