<?xml version="1.0"?>
<VTKFile type="UnstructuredGrid">
  <UnstructuredGrid>
  <Piece NumberOfPoints="13"  NumberOfCells="23">
    <Points>
      <DataArray type="Float64" NumberOfComponents="3" format="ascii">
0 0 0
3.00697 0.0327123 0
6.01152 0.108494 0
9.01341 0.217339 0
12.0127 0.349274 0
15.0098 0.494267 0
15.9852 1.0411 0
14.9629 1.49307 0
11.9686 1.34811 0
8.97533 1.21642 0
5.98282 1.10788 0
2.99096 1.03237 0
0 1 0
      </DataArray>
    </Points>
    <Cells>
      <DataArray type="Int32" Name="connectivity" format="ascii">
0 1
1 2
2 3
3 4
4 5
5 6
0 12
0 11
1 11
1 10
2 10
2 9
3 9
3 8
4 8
4 7
5 7
7 6
11 12
11 10
10 9
8 9
7 8
      </DataArray>
      <DataArray type="Int32" Name="offsets" format="ascii">
2
4
6
8
10
12
14
16
18
20
22
24
26
28
30
32
34
36
38
40
42
44
46
      </DataArray>
      <DataArray type="UInt8" Name="types" format="ascii">
4
4
4
4
4
4
4
4
4
4
4
4
4
4
4
4
4
4
4
4
4
4
4
      </DataArray>
    </Cells>
    <PointData>
      <DataArray type="Float64" NumberOfComponents="3" Name="Displacement" format="ascii">
0 0 0
0.00697099 0.0327123 0
0.0115228 0.108494 0
0.0134129 0.217339 0
0.0127276 0.349274 0
0.00978666 0.494267 0
-0.0147667 0.541103 0
-0.0371279 0.493072 0
-0.0314253 0.348112 0
-0.024673 0.216419 0
-0.0171832 0.107878 0
-0.00903872 0.0323658 0
0 0 0
      </DataArray> 
    </PointData>
    <CellData>
    </CellData>
  </Piece>
  </UnstructuredGrid>
</VTKFile>
