<?xml version="1.0"?>
<VTKFile type="UnstructuredGrid">
  <UnstructuredGrid>
  <Piece NumberOfPoints="13"  NumberOfCells="23">
    <Points>
      <DataArray type="Float64" NumberOfComponents="3" format="ascii">
0 0 0
3.04987 0.537514 0
5.90727 1.67028 0
8.54886 3.19844 0
11.0088 4.96865 0
13.3509 6.85925 0
13.8285 7.87471 0
12.736 7.6458 0
10.4236 5.7759 0
8.03145 4.04916 0
5.50432 2.57836 0
2.81861 1.50007 0
0 1 0
      </DataArray>
    </Points>
    <Cells>
      <DataArray type="Int32" Name="connectivity" format="ascii">
0 1
1 2
2 3
3 4
4 5
5 6
0 12
0 11
1 11
1 10
2 10
2 9
3 9
3 8
4 8
4 7
5 7
7 6
11 12
11 10
10 9
8 9
7 8
      </DataArray>
      <DataArray type="Int32" Name="offsets" format="ascii">
2
4
6
8
10
12
14
16
18
20
22
24
26
28
30
32
34
36
38
40
42
44
46
      </DataArray>
      <DataArray type="UInt8" Name="types" format="ascii">
4
4
4
4
4
4
4
4
4
4
4
4
4
4
4
4
4
4
4
4
4
4
4
      </DataArray>
    </Cells>
    <PointData>
      <DataArray type="Float64" NumberOfComponents="3" Name="Displacement" format="ascii">
0 0 0
0.0498737 0.537514 0
-0.0927333 1.67028 0
-0.451144 3.19844 0
-0.991204 4.96865 0
-1.64912 6.85925 0
-2.17151 7.37471 0
-2.264 6.6458 0
-1.57639 4.7759 0
-0.968549 3.04916 0
-0.495683 1.57836 0
-0.181395 0.500071 0
0 0 0
      </DataArray> 
    </PointData>
    <CellData>
    </CellData>
  </Piece>
  </UnstructuredGrid>
</VTKFile>
