<?xml version="1.0"?>
<VTKFile type="UnstructuredGrid">
  <UnstructuredGrid>
  <Piece NumberOfPoints="13"  NumberOfCells="23">
    <Points>
      <DataArray type="Float64" NumberOfComponents="3" format="ascii">
0 0 0
3.05119 0.462897 0
5.95166 1.45624 0
8.67897 2.81344 0
11.2575 4.39963 0
13.7377 6.10266 0
14.2913 7.07813 0
13.1844 6.93396 0
10.7323 5.24753 0
8.21715 3.69627 0
5.59469 2.38456 0
2.84771 1.43375 0
0 1 0
      </DataArray>
    </Points>
    <Cells>
      <DataArray type="Int32" Name="connectivity" format="ascii">
0 1
1 2
2 3
3 4
4 5
5 6
0 12
0 11
1 11
1 10
2 10
2 9
3 9
3 8
4 8
4 7
5 7
7 6
11 12
11 10
10 9
8 9
7 8
      </DataArray>
      <DataArray type="Int32" Name="offsets" format="ascii">
2
4
6
8
10
12
14
16
18
20
22
24
26
28
30
32
34
36
38
40
42
44
46
      </DataArray>
      <DataArray type="UInt8" Name="types" format="ascii">
4
4
4
4
4
4
4
4
4
4
4
4
4
4
4
4
4
4
4
4
4
4
4
      </DataArray>
    </Cells>
    <PointData>
      <DataArray type="Float64" NumberOfComponents="3" Name="Displacement" format="ascii">
0 0 0
0.0511928 0.462897 0
-0.0483355 1.45624 0
-0.321032 2.81344 0
-0.742469 4.39963 0
-1.2623 6.10266 0
-1.70869 6.57813 0
-1.81558 5.93396 0
-1.26767 4.24753 0
-0.78285 2.69627 0
-0.405305 1.38456 0
-0.152295 0.433751 0
0 0 0
      </DataArray> 
    </PointData>
    <CellData>
    </CellData>
  </Piece>
  </UnstructuredGrid>
</VTKFile>
