<?xml version="1.0"?>
<VTKFile type="UnstructuredGrid">
  <UnstructuredGrid>
  <Piece NumberOfPoints="13"  NumberOfCells="23">
    <Points>
      <DataArray type="Float64" NumberOfComponents="3" format="ascii">
0 0 0
3.02671 0.142866 0
6.0323 0.469043 0
9.01263 0.933911 0
11.9695 1.49423 0
14.9087 2.10762 0
15.7893 2.79827 0
14.7102 3.08728 0
11.7825 2.47574 0
8.85098 1.91979 0
5.91015 1.46039 0
2.95844 1.13911 0
0 1 0
      </DataArray>
    </Points>
    <Cells>
      <DataArray type="Int32" Name="connectivity" format="ascii">
0 1
1 2
2 3
3 4
4 5
5 6
0 12
0 11
1 11
1 10
2 10
2 9
3 9
3 8
4 8
4 7
5 7
7 6
11 12
11 10
10 9
8 9
7 8
      </DataArray>
      <DataArray type="Int32" Name="offsets" format="ascii">
2
4
6
8
10
12
14
16
18
20
22
24
26
28
30
32
34
36
38
40
42
44
46
      </DataArray>
      <DataArray type="UInt8" Name="types" format="ascii">
4
4
4
4
4
4
4
4
4
4
4
4
4
4
4
4
4
4
4
4
4
4
4
      </DataArray>
    </Cells>
    <PointData>
      <DataArray type="Float64" NumberOfComponents="3" Name="Displacement" format="ascii">
0 0 0
0.0267123 0.142866 0
0.032297 0.469043 0
0.0126276 0.933911 0
-0.0305112 1.49423 0
-0.0912716 2.10762 0
-0.210705 2.29827 0
-0.289837 2.08728 0
-0.217523 1.47574 0
-0.149017 0.919788 0
-0.0898549 0.460394 0
-0.0415556 0.139115 0
0 0 0
      </DataArray> 
    </PointData>
    <CellData>
    </CellData>
  </Piece>
  </UnstructuredGrid>
</VTKFile>
