<?xml version="1.0"?>
<VTKFile type="UnstructuredGrid">
  <UnstructuredGrid>
  <Piece NumberOfPoints="13"  NumberOfCells="23">
    <Points>
      <DataArray type="Float64" NumberOfComponents="3" format="ascii">
0 0 0
3.03077 0.170617 0
6.0333 0.558496 0
9.0019 1.10987 0
11.9392 1.77317 0
14.8534 2.49837 0
15.7077 3.22161 0
14.6186 3.46988 0
11.718 2.74737 0
8.81051 2.09018 0
5.8885 1.5465 0
2.94977 1.16551 0
0 1 0
      </DataArray>
    </Points>
    <Cells>
      <DataArray type="Int32" Name="connectivity" format="ascii">
0 1
1 2
2 3
3 4
4 5
5 6
0 12
0 11
1 11
1 10
2 10
2 9
3 9
3 8
4 8
4 7
5 7
7 6
11 12
11 10
10 9
8 9
7 8
      </DataArray>
      <DataArray type="Int32" Name="offsets" format="ascii">
2
4
6
8
10
12
14
16
18
20
22
24
26
28
30
32
34
36
38
40
42
44
46
      </DataArray>
      <DataArray type="UInt8" Name="types" format="ascii">
4
4
4
4
4
4
4
4
4
4
4
4
4
4
4
4
4
4
4
4
4
4
4
      </DataArray>
    </Cells>
    <PointData>
      <DataArray type="Float64" NumberOfComponents="3" Name="Displacement" format="ascii">
0 0 0
0.0307737 0.170617 0
0.0332971 0.558496 0
0.00189573 1.10987 0
-0.0608205 1.77317 0
-0.146616 2.49837 0
-0.292337 2.72161 0
-0.381421 2.46988 0
-0.282046 1.74737 0
-0.189493 1.09018 0
-0.111498 0.546495 0
-0.0502274 0.165505 0
0 0 0
      </DataArray> 
    </PointData>
    <CellData>
    </CellData>
  </Piece>
  </UnstructuredGrid>
</VTKFile>
