<?xml version="1.0"?>
<VTKFile type="UnstructuredGrid">
  <UnstructuredGrid>
  <Piece NumberOfPoints="13"  NumberOfCells="23">
    <Points>
      <DataArray type="Float64" NumberOfComponents="3" format="ascii">
0 0 0
3.02489 0.131187 0
6.03138 0.431219 0
9.01592 0.859262 0
11.98 1.37559 0
14.9286 1.9411 0
15.82 2.61758 0
14.7456 2.92381 0
11.8076 2.35984 0
8.86698 1.84723 0
5.91887 1.42383 0
2.96204 1.12795 0
0 1 0
      </DataArray>
    </Points>
    <Cells>
      <DataArray type="Int32" Name="connectivity" format="ascii">
0 1
1 2
2 3
3 4
4 5
5 6
0 12
0 11
1 11
1 10
2 10
2 9
3 9
3 8
4 8
4 7
5 7
7 6
11 12
11 10
10 9
8 9
7 8
      </DataArray>
      <DataArray type="Int32" Name="offsets" format="ascii">
2
4
6
8
10
12
14
16
18
20
22
24
26
28
30
32
34
36
38
40
42
44
46
      </DataArray>
      <DataArray type="UInt8" Name="types" format="ascii">
4
4
4
4
4
4
4
4
4
4
4
4
4
4
4
4
4
4
4
4
4
4
4
      </DataArray>
    </Cells>
    <PointData>
      <DataArray type="Float64" NumberOfComponents="3" Name="Displacement" format="ascii">
0 0 0
0.0248933 0.131187 0
0.031378 0.431219 0
0.0159245 0.859262 0
-0.0199779 1.37559 0
-0.071373 1.9411 0
-0.17999 2.11758 0
-0.254425 1.92381 0
-0.192356 1.35984 0
-0.133022 0.847226 0
-0.0811299 0.423829 0
-0.0379625 0.127952 0
0 0 0
      </DataArray> 
    </PointData>
    <CellData>
    </CellData>
  </Piece>
  </UnstructuredGrid>
</VTKFile>
