<?xml version="1.0"?>
<VTKFile type="UnstructuredGrid">
  <UnstructuredGrid>
  <Piece NumberOfPoints="13"  NumberOfCells="23">
    <Points>
      <DataArray type="Float64" NumberOfComponents="3" format="ascii">
0 0 0
3.05037 0.521722 0
5.91735 1.62555 0
8.5776 3.11875 0
11.0631 4.85177 0
13.4347 6.70472 0
13.9282 7.71243 0
12.8322 7.50085 0
10.49 5.66774 0
8.0715 3.9764 0
5.52386 2.53802 0
2.82487 1.48609 0
0 1 0
      </DataArray>
    </Points>
    <Cells>
      <DataArray type="Int32" Name="connectivity" format="ascii">
0 1
1 2
2 3
3 4
4 5
5 6
0 12
0 11
1 11
1 10
2 10
2 9
3 9
3 8
4 8
4 7
5 7
7 6
11 12
11 10
10 9
8 9
7 8
      </DataArray>
      <DataArray type="Int32" Name="offsets" format="ascii">
2
4
6
8
10
12
14
16
18
20
22
24
26
28
30
32
34
36
38
40
42
44
46
      </DataArray>
      <DataArray type="UInt8" Name="types" format="ascii">
4
4
4
4
4
4
4
4
4
4
4
4
4
4
4
4
4
4
4
4
4
4
4
      </DataArray>
    </Cells>
    <PointData>
      <DataArray type="Float64" NumberOfComponents="3" Name="Displacement" format="ascii">
0 0 0
0.050374 0.521722 0
-0.0826461 1.62555 0
-0.422405 3.11875 0
-0.936935 4.85177 0
-1.56531 6.70472 0
-2.07183 7.21243 0
-2.16781 6.50085 0
-1.51001 4.66774 0
-0.928501 2.9764 0
-0.476145 1.53802 0
-0.175132 0.486089 0
0 0 0
      </DataArray> 
    </PointData>
    <CellData>
    </CellData>
  </Piece>
  </UnstructuredGrid>
</VTKFile>
