<?xml version="1.0"?>
<VTKFile type="UnstructuredGrid">
  <UnstructuredGrid>
  <Piece NumberOfPoints="13"  NumberOfCells="23">
    <Points>
      <DataArray type="Float64" NumberOfComponents="3" format="ascii">
0 0 0
3.01128 0.0542488 0
6.01775 0.179603 0
9.01874 0.359438 0
12.0145 0.577244 0
15.0059 0.816463 0
15.9642 1.39315 0
14.9285 1.81331 0
11.9416 1.57427 0
8.95588 1.35713 0
5.97036 1.17812 0
2.98485 1.0535 0
0 1 0
      </DataArray>
    </Points>
    <Cells>
      <DataArray type="Int32" Name="connectivity" format="ascii">
0 1
1 2
2 3
3 4
4 5
5 6
0 12
0 11
1 11
1 10
2 10
2 9
3 9
3 8
4 8
4 7
5 7
7 6
11 12
11 10
10 9
8 9
7 8
      </DataArray>
      <DataArray type="Int32" Name="offsets" format="ascii">
2
4
6
8
10
12
14
16
18
20
22
24
26
28
30
32
34
36
38
40
42
44
46
      </DataArray>
      <DataArray type="UInt8" Name="types" format="ascii">
4
4
4
4
4
4
4
4
4
4
4
4
4
4
4
4
4
4
4
4
4
4
4
      </DataArray>
    </Cells>
    <PointData>
      <DataArray type="Float64" NumberOfComponents="3" Name="Displacement" format="ascii">
0 0 0
0.0112843 0.0542488 0
0.0177486 0.179603 0
0.0187385 0.359438 0
0.0144942 0.577244 0
0.00588859 0.816463 0
-0.0358265 0.893152 0
-0.0715181 0.813305 0
-0.0583589 0.574273 0
-0.0441164 0.357129 0
-0.029638 0.17812 0
-0.0151485 0.0535016 0
0 0 0
      </DataArray> 
    </PointData>
    <CellData>
    </CellData>
  </Piece>
  </UnstructuredGrid>
</VTKFile>
