<?xml version="1.0"?>
<VTKFile type="UnstructuredGrid">
  <UnstructuredGrid>
  <Piece NumberOfPoints="13"  NumberOfCells="23">
    <Points>
      <DataArray type="Float64" NumberOfComponents="3" format="ascii">
0 0 0
3.04926 0.5532 0
5.8969 1.71441 0
8.51973 3.27662 0
10.9541 5.08287 0
13.2668 7.0098 0
13.7288 8.03259 0
12.64 7.78679 0
10.3572 5.88141 0
7.99133 4.12042 0
5.48471 2.61808 0
2.81233 1.51393 0
0 1 0
      </DataArray>
    </Points>
    <Cells>
      <DataArray type="Int32" Name="connectivity" format="ascii">
0 1
1 2
2 3
3 4
4 5
5 6
0 12
0 11
1 11
1 10
2 10
2 9
3 9
3 8
4 8
4 7
5 7
7 6
11 12
11 10
10 9
8 9
7 8
      </DataArray>
      <DataArray type="Int32" Name="offsets" format="ascii">
2
4
6
8
10
12
14
16
18
20
22
24
26
28
30
32
34
36
38
40
42
44
46
      </DataArray>
      <DataArray type="UInt8" Name="types" format="ascii">
4
4
4
4
4
4
4
4
4
4
4
4
4
4
4
4
4
4
4
4
4
4
4
      </DataArray>
    </Cells>
    <PointData>
      <DataArray type="Float64" NumberOfComponents="3" Name="Displacement" format="ascii">
0 0 0
0.0492592 0.5532 0
-0.103105 1.71441 0
-0.480275 3.27662 0
-1.04586 5.08287 0
-1.73321 7.0098 0
-2.27123 7.53259 0
-2.36005 6.78679 0
-1.64276 4.88141 0
-1.00867 3.12042 0
-0.515294 1.61808 0
-0.18767 0.513932 0
0 0 0
      </DataArray> 
    </PointData>
    <CellData>
    </CellData>
  </Piece>
  </UnstructuredGrid>
</VTKFile>
