<?xml version="1.0"?>
<VTKFile type="UnstructuredGrid">
  <UnstructuredGrid>
  <Piece NumberOfPoints="13"  NumberOfCells="23">
    <Points>
      <DataArray type="Float64" NumberOfComponents="3" format="ascii">
0 0 0
3.02443 0.128269 0
6.0311 0.421751 0
9.01663 0.840554 0
11.9824 1.34583 0
14.9333 1.8993 0
15.8273 2.5722 0
14.7541 2.88273 0
11.8137 2.33073 0
8.87088 1.82902 0
5.92101 1.41466 0
2.96293 1.12516 0
0 1 0
      </DataArray>
    </Points>
    <Cells>
      <DataArray type="Int32" Name="connectivity" format="ascii">
0 1
1 2
2 3
3 4
4 5
5 6
0 12
0 11
1 11
1 10
2 10
2 9
3 9
3 8
4 8
4 7
5 7
7 6
11 12
11 10
10 9
8 9
7 8
      </DataArray>
      <DataArray type="Int32" Name="offsets" format="ascii">
2
4
6
8
10
12
14
16
18
20
22
24
26
28
30
32
34
36
38
40
42
44
46
      </DataArray>
      <DataArray type="UInt8" Name="types" format="ascii">
4
4
4
4
4
4
4
4
4
4
4
4
4
4
4
4
4
4
4
4
4
4
4
      </DataArray>
    </Cells>
    <PointData>
      <DataArray type="Float64" NumberOfComponents="3" Name="Displacement" format="ascii">
0 0 0
0.0244286 0.128269 0
0.0311019 0.421751 0
0.0166335 0.840554 0
-0.017556 1.34583 0
-0.0667229 1.8993 0
-0.172662 2.0722 0
-0.245875 1.88273 0
-0.186256 1.33073 0
-0.129123 0.829016 0
-0.0789858 0.414662 0
-0.0370699 0.125157 0
0 0 0
      </DataArray> 
    </PointData>
    <CellData>
    </CellData>
  </Piece>
  </UnstructuredGrid>
</VTKFile>
