<?xml version="1.0"?>
<VTKFile type="UnstructuredGrid">
  <UnstructuredGrid>
  <Piece NumberOfPoints="13"  NumberOfCells="23">
    <Points>
      <DataArray type="Float64" NumberOfComponents="3" format="ascii">
0 0 0
3.05051 0.409546 0
5.97807 1.29915 0
8.7622 2.52509 0
11.4214 3.96667 0
13.9967 5.52021 0
14.6058 6.46151 0
13.4923 6.38226 0
10.9435 4.8424 0
8.34352 3.42969 0
5.65604 2.241 0
2.86776 1.38589 0
0 1 0
      </DataArray>
    </Points>
    <Cells>
      <DataArray type="Int32" Name="connectivity" format="ascii">
0 1
1 2
2 3
3 4
4 5
5 6
0 12
0 11
1 11
1 10
2 10
2 9
3 9
3 8
4 8
4 7
5 7
7 6
11 12
11 10
10 9
8 9
7 8
      </DataArray>
      <DataArray type="Int32" Name="offsets" format="ascii">
2
4
6
8
10
12
14
16
18
20
22
24
26
28
30
32
34
36
38
40
42
44
46
      </DataArray>
      <DataArray type="UInt8" Name="types" format="ascii">
4
4
4
4
4
4
4
4
4
4
4
4
4
4
4
4
4
4
4
4
4
4
4
      </DataArray>
    </Cells>
    <PointData>
      <DataArray type="Float64" NumberOfComponents="3" Name="Displacement" format="ascii">
0 0 0
0.0505096 0.409546 0
-0.0219294 1.29915 0
-0.237799 2.52509 0
-0.578613 3.96667 0
-1.00331 5.52021 0
-1.39417 5.96151 0
-1.50765 5.38226 0
-1.05652 3.8424 0
-0.656484 2.42969 0
-0.343955 1.241 0
-0.132244 0.385893 0
0 0 0
      </DataArray> 
    </PointData>
    <CellData>
    </CellData>
  </Piece>
  </UnstructuredGrid>
</VTKFile>
