<?xml version="1.0"?>
<VTKFile type="UnstructuredGrid">
  <UnstructuredGrid>
  <Piece NumberOfPoints="13"  NumberOfCells="23">
    <Points>
      <DataArray type="Float64" NumberOfComponents="3" format="ascii">
0 0 0
3.0446 0.29681 0
6.01772 0.956784 0
8.90545 1.88128 0
11.7166 2.98144 0
14.4746 4.17584 0
15.2018 5.02806 0
14.0874 5.09686 0
11.3509 3.91029 0
8.58723 2.82695 0
5.77519 1.92382 0
2.90806 1.28329 0
0 1 0
      </DataArray>
    </Points>
    <Cells>
      <DataArray type="Int32" Name="connectivity" format="ascii">
0 1
1 2
2 3
3 4
4 5
5 6
0 12
0 11
1 11
1 10
2 10
2 9
3 9
3 8
4 8
4 7
5 7
7 6
11 12
11 10
10 9
8 9
7 8
      </DataArray>
      <DataArray type="Int32" Name="offsets" format="ascii">
2
4
6
8
10
12
14
16
18
20
22
24
26
28
30
32
34
36
38
40
42
44
46
      </DataArray>
      <DataArray type="UInt8" Name="types" format="ascii">
4
4
4
4
4
4
4
4
4
4
4
4
4
4
4
4
4
4
4
4
4
4
4
      </DataArray>
    </Cells>
    <PointData>
      <DataArray type="Float64" NumberOfComponents="3" Name="Displacement" format="ascii">
0 0 0
0.0445977 0.29681 0
0.0177242 0.956784 0
-0.0945517 1.88128 0
-0.283354 2.98144 0
-0.52541 4.17584 0
-0.798193 4.52806 0
-0.912613 4.09686 0
-0.649092 2.91029 0
-0.412766 1.82695 0
-0.224805 0.923824 0
-0.0919418 0.283288 0
0 0 0
      </DataArray> 
    </PointData>
    <CellData>
    </CellData>
  </Piece>
  </UnstructuredGrid>
</VTKFile>
