<?xml version="1.0"?>
<VTKFile type="UnstructuredGrid">
  <UnstructuredGrid>
  <Piece NumberOfPoints="13"  NumberOfCells="23">
    <Points>
      <DataArray type="Float64" NumberOfComponents="3" format="ascii">
0 0 0
3.00549 0.0255667 0
6.00922 0.0848425 0
9.01104 0.17001 0
12.011 0.27327 0
15.0093 0.386769 0
15.9903 0.923525 0
14.9726 1.38602 0
11.9764 1.27253 0
8.98122 1.16942 0
5.98675 1.08443 0
2.99296 1.02532 0
0 1 0
      </DataArray>
    </Points>
    <Cells>
      <DataArray type="Int32" Name="connectivity" format="ascii">
0 1
1 2
2 3
3 4
4 5
5 6
0 12
0 11
1 11
1 10
2 10
2 9
3 9
3 8
4 8
4 7
5 7
7 6
11 12
11 10
10 9
8 9
7 8
      </DataArray>
      <DataArray type="Int32" Name="offsets" format="ascii">
2
4
6
8
10
12
14
16
18
20
22
24
26
28
30
32
34
36
38
40
42
44
46
      </DataArray>
      <DataArray type="UInt8" Name="types" format="ascii">
4
4
4
4
4
4
4
4
4
4
4
4
4
4
4
4
4
4
4
4
4
4
4
      </DataArray>
    </Cells>
    <PointData>
      <DataArray type="Float64" NumberOfComponents="3" Name="Displacement" format="ascii">
0 0 0
0.00549137 0.0255667 0
0.00921945 0.0848425 0
0.0110353 0.17001 0
0.0109914 0.27327 0
0.00928351 0.386769 0
-0.00974603 0.423525 0
-0.0274405 0.386022 0
-0.0235708 0.272526 0
-0.0187765 0.169415 0
-0.013249 0.0844336 0
-0.00703917 0.0253231 0
0 0 0
      </DataArray> 
    </PointData>
    <CellData>
    </CellData>
  </Piece>
  </UnstructuredGrid>
</VTKFile>
