<?xml version="1.0"?>
<VTKFile type="UnstructuredGrid">
  <UnstructuredGrid>
  <Piece NumberOfPoints="13"  NumberOfCells="23">
    <Points>
      <DataArray type="Float64" NumberOfComponents="3" format="ascii">
0 0 0
3.05119 0.468305 0
5.94873 1.47198 0
8.67005 2.84206 0
11.2402 4.4423 0
13.7105 6.15976 0
14.2586 7.13842 0
13.1525 6.98787 0
10.7104 5.28731 0
8.20402 3.72263 0
5.58832 2.39888 0
2.84564 1.43858 0
0 1 0
      </DataArray>
    </Points>
    <Cells>
      <DataArray type="Int32" Name="connectivity" format="ascii">
0 1
1 2
2 3
3 4
4 5
5 6
0 12
0 11
1 11
1 10
2 10
2 9
3 9
3 8
4 8
4 7
5 7
7 6
11 12
11 10
10 9
8 9
7 8
      </DataArray>
      <DataArray type="Int32" Name="offsets" format="ascii">
2
4
6
8
10
12
14
16
18
20
22
24
26
28
30
32
34
36
38
40
42
44
46
      </DataArray>
      <DataArray type="UInt8" Name="types" format="ascii">
4
4
4
4
4
4
4
4
4
4
4
4
4
4
4
4
4
4
4
4
4
4
4
      </DataArray>
    </Cells>
    <PointData>
      <DataArray type="Float64" NumberOfComponents="3" Name="Displacement" format="ascii">
0 0 0
0.0511863 0.468305 0
-0.051268 1.47198 0
-0.329952 2.84206 0
-0.759788 4.4423 0
-1.28946 6.15976 0
-1.74144 6.63842 0
-1.84748 5.98787 0
-1.28957 4.28731 0
-0.795984 2.72263 0
-0.411683 1.39888 0
-0.154362 0.43858 0
0 0 0
      </DataArray> 
    </PointData>
    <CellData>
    </CellData>
  </Piece>
  </UnstructuredGrid>
</VTKFile>
