<?xml version="1.0"?>
<VTKFile type="UnstructuredGrid">
  <UnstructuredGrid>
  <Piece NumberOfPoints="13"  NumberOfCells="23">
    <Points>
      <DataArray type="Float64" NumberOfComponents="3" format="ascii">
0 0 0
3.02057 0.104952 0
6.02822 0.345878 0
9.02063 0.690329 0
11.9987 1.10647 0
14.9657 1.56274 0
15.8808 2.20644 0
14.818 2.55147 0
11.8597 2.09614 0
8.90058 1.68241 0
5.93762 1.34098 0
2.96999 1.10274 0
0 1 0
      </DataArray>
    </Points>
    <Cells>
      <DataArray type="Int32" Name="connectivity" format="ascii">
0 1
1 2
2 3
3 4
4 5
5 6
0 12
0 11
1 11
1 10
2 10
2 9
3 9
3 8
4 8
4 7
5 7
7 6
11 12
11 10
10 9
8 9
7 8
      </DataArray>
      <DataArray type="Int32" Name="offsets" format="ascii">
2
4
6
8
10
12
14
16
18
20
22
24
26
28
30
32
34
36
38
40
42
44
46
      </DataArray>
      <DataArray type="UInt8" Name="types" format="ascii">
4
4
4
4
4
4
4
4
4
4
4
4
4
4
4
4
4
4
4
4
4
4
4
      </DataArray>
    </Cells>
    <PointData>
      <DataArray type="Float64" NumberOfComponents="3" Name="Displacement" format="ascii">
0 0 0
0.0205695 0.104952 0
0.0282207 0.345878 0
0.0206252 0.690329 0
-0.00128456 1.10647 0
-0.0343019 1.56274 0
-0.119211 1.70644 0
-0.181971 1.55147 0
-0.140307 1.09614 0
-0.0994219 0.682413 0
-0.0623824 0.340978 0
-0.0300139 0.102745 0
0 0 0
      </DataArray> 
    </PointData>
    <CellData>
    </CellData>
  </Piece>
  </UnstructuredGrid>
</VTKFile>
