<?xml version="1.0"?>
<VTKFile type="UnstructuredGrid">
  <UnstructuredGrid>
  <Piece NumberOfPoints="13"  NumberOfCells="23">
    <Points>
      <DataArray type="Float64" NumberOfComponents="3" format="ascii">
0 0 0
3.05119 0.457477 0
5.95456 1.44043 0
8.68782 2.78464 0
11.2748 4.35664 0
13.7648 6.04507 0
14.324 7.01729 0
13.2163 6.87955 0
10.7542 5.20742 0
8.23026 3.66974 0
5.60106 2.37017 0
2.84977 1.42891 0
0 1 0
      </DataArray>
    </Points>
    <Cells>
      <DataArray type="Int32" Name="connectivity" format="ascii">
0 1
1 2
2 3
3 4
4 5
5 6
0 12
0 11
1 11
1 10
2 10
2 9
3 9
3 8
4 8
4 7
5 7
7 6
11 12
11 10
10 9
8 9
7 8
      </DataArray>
      <DataArray type="Int32" Name="offsets" format="ascii">
2
4
6
8
10
12
14
16
18
20
22
24
26
28
30
32
34
36
38
40
42
44
46
      </DataArray>
      <DataArray type="UInt8" Name="types" format="ascii">
4
4
4
4
4
4
4
4
4
4
4
4
4
4
4
4
4
4
4
4
4
4
4
      </DataArray>
    </Cells>
    <PointData>
      <DataArray type="Float64" NumberOfComponents="3" Name="Displacement" format="ascii">
0 0 0
0.0511853 0.457477 0
-0.0454427 1.44043 0
-0.312177 2.78464 0
-0.725234 4.35664 0
-1.23522 6.04507 0
-1.67601 6.51729 0
-1.78373 5.87955 0
-1.2458 4.20742 0
-0.769743 2.66974 0
-0.398942 1.37017 0
-0.150229 0.428907 0
0 0 0
      </DataArray> 
    </PointData>
    <CellData>
    </CellData>
  </Piece>
  </UnstructuredGrid>
</VTKFile>
