<?xml version="1.0"?>
<VTKFile type="UnstructuredGrid">
  <UnstructuredGrid>
  <Piece NumberOfPoints="13"  NumberOfCells="23">
    <Points>
      <DataArray type="Float64" NumberOfComponents="3" format="ascii">
0 0 0
3.0489 0.364952 0
5.99647 1.16536 0
8.82455 2.2759 0
11.5473 3.58821 0
14.1984 5.0067 0
14.8544 5.91559 0
13.7382 5.89325 0
11.1118 4.48603 0
8.4441 3.19765 0
5.70498 2.11779 0
2.88403 1.34556 0
0 1 0
      </DataArray>
    </Points>
    <Cells>
      <DataArray type="Int32" Name="connectivity" format="ascii">
0 1
1 2
2 3
3 4
4 5
5 6
0 12
0 11
1 11
1 10
2 10
2 9
3 9
3 8
4 8
4 7
5 7
7 6
11 12
11 10
10 9
8 9
7 8
      </DataArray>
      <DataArray type="Int32" Name="offsets" format="ascii">
2
4
6
8
10
12
14
16
18
20
22
24
26
28
30
32
34
36
38
40
42
44
46
      </DataArray>
      <DataArray type="UInt8" Name="types" format="ascii">
4
4
4
4
4
4
4
4
4
4
4
4
4
4
4
4
4
4
4
4
4
4
4
      </DataArray>
    </Cells>
    <PointData>
      <DataArray type="Float64" NumberOfComponents="3" Name="Displacement" format="ascii">
0 0 0
0.0488967 0.364952 0
-0.00352576 1.16536 0
-0.175454 2.2759 0
-0.452684 3.58821 0
-0.801553 5.0067 0
-1.14564 5.41559 0
-1.26178 4.89325 0
-0.888206 3.48603 0
-0.555902 2.19765 0
-0.295018 1.11779 0
-0.115966 0.345564 0
0 0 0
      </DataArray> 
    </PointData>
    <CellData>
    </CellData>
  </Piece>
  </UnstructuredGrid>
</VTKFile>
