<?xml version="1.0"?>
<VTKFile type="UnstructuredGrid">
  <UnstructuredGrid>
  <Piece NumberOfPoints="13"  NumberOfCells="23">
    <Points>
      <DataArray type="Float64" NumberOfComponents="3" format="ascii">
0 0 0
3.04384 0.63889 0
5.83439 1.95001 0
8.3515 3.68689 0
10.6448 5.67428 0
12.7963 7.7817 0
13.1756 8.83862 0
12.1099 8.50628 0
9.9891 6.42485 0
7.76717 4.49216 0
5.37429 2.82884 0
2.77705 1.58925 0
0 1 0
      </DataArray>
    </Points>
    <Cells>
      <DataArray type="Int32" Name="connectivity" format="ascii">
0 1
1 2
2 3
3 4
4 5
5 6
0 12
0 11
1 11
1 10
2 10
2 9
3 9
3 8
4 8
4 7
5 7
7 6
11 12
11 10
10 9
8 9
7 8
      </DataArray>
      <DataArray type="Int32" Name="offsets" format="ascii">
2
4
6
8
10
12
14
16
18
20
22
24
26
28
30
32
34
36
38
40
42
44
46
      </DataArray>
      <DataArray type="UInt8" Name="types" format="ascii">
4
4
4
4
4
4
4
4
4
4
4
4
4
4
4
4
4
4
4
4
4
4
4
      </DataArray>
    </Cells>
    <PointData>
      <DataArray type="Float64" NumberOfComponents="3" Name="Displacement" format="ascii">
0 0 0
0.0438371 0.63889 0
-0.165605 1.95001 0
-0.648502 3.68689 0
-1.35522 5.67428 0
-2.20368 7.7817 0
-2.8244 8.33862 0
-2.89008 7.50628 0
-2.0109 5.42485 0
-1.23283 3.49216 0
-0.625707 1.82884 0
-0.222948 0.58925 0
0 0 0
      </DataArray> 
    </PointData>
    <CellData>
    </CellData>
  </Piece>
  </UnstructuredGrid>
</VTKFile>
