<?xml version="1.0"?>
<VTKFile type="UnstructuredGrid">
  <UnstructuredGrid>
  <Piece NumberOfPoints="13"  NumberOfCells="23">
    <Points>
      <DataArray type="Float64" NumberOfComponents="3" format="ascii">
0 0 0
3.04493 0.301108 0
6.01664 0.970083 0
8.9009 1.90665 0
11.7069 3.0207 0
14.4585 4.22987 0
15.1812 5.08592 0
14.0665 5.14884 0
11.3366 3.94771 0
8.57862 2.8509 0
5.77094 1.93626 0
2.90657 1.28724 0
0 1 0
      </DataArray>
    </Points>
    <Cells>
      <DataArray type="Int32" Name="connectivity" format="ascii">
0 1
1 2
2 3
3 4
4 5
5 6
0 12
0 11
1 11
1 10
2 10
2 9
3 9
3 8
4 8
4 7
5 7
7 6
11 12
11 10
10 9
8 9
7 8
      </DataArray>
      <DataArray type="Int32" Name="offsets" format="ascii">
2
4
6
8
10
12
14
16
18
20
22
24
26
28
30
32
34
36
38
40
42
44
46
      </DataArray>
      <DataArray type="UInt8" Name="types" format="ascii">
4
4
4
4
4
4
4
4
4
4
4
4
4
4
4
4
4
4
4
4
4
4
4
      </DataArray>
    </Cells>
    <PointData>
      <DataArray type="Float64" NumberOfComponents="3" Name="Displacement" format="ascii">
0 0 0
0.0449344 0.301108 0
0.0166389 0.970083 0
-0.0991032 1.90665 0
-0.293122 3.0207 0
-0.541529 4.22987 0
-0.818782 4.58592 0
-0.933537 4.14884 0
-0.663439 2.94771 0
-0.421377 1.8509 0
-0.22906 0.936262 0
-0.0934266 0.287241 0
0 0 0
      </DataArray> 
    </PointData>
    <CellData>
    </CellData>
  </Piece>
  </UnstructuredGrid>
</VTKFile>
