<?xml version="1.0"?>
<VTKFile type="UnstructuredGrid">
  <UnstructuredGrid>
  <Piece NumberOfPoints="13"  NumberOfCells="23">
    <Points>
      <DataArray type="Float64" NumberOfComponents="3" format="ascii">
0 0 0
3.04552 0.617442 0
5.85093 1.89191 0
8.39492 3.58687 0
10.7237 5.53136 0
12.9154 7.59637 0
13.315 8.64565 0
12.2431 8.33406 0
10.0819 6.29395 0
7.82395 4.40186 0
5.40242 2.77706 0
2.78604 1.57046 0
0 1 0
      </DataArray>
    </Points>
    <Cells>
      <DataArray type="Int32" Name="connectivity" format="ascii">
0 1
1 2
2 3
3 4
4 5
5 6
0 12
0 11
1 11
1 10
2 10
2 9
3 9
3 8
4 8
4 7
5 7
7 6
11 12
11 10
10 9
8 9
7 8
      </DataArray>
      <DataArray type="Int32" Name="offsets" format="ascii">
2
4
6
8
10
12
14
16
18
20
22
24
26
28
30
32
34
36
38
40
42
44
46
      </DataArray>
      <DataArray type="UInt8" Name="types" format="ascii">
4
4
4
4
4
4
4
4
4
4
4
4
4
4
4
4
4
4
4
4
4
4
4
      </DataArray>
    </Cells>
    <PointData>
      <DataArray type="Float64" NumberOfComponents="3" Name="Displacement" format="ascii">
0 0 0
0.0455218 0.617442 0
-0.149073 1.89191 0
-0.605081 3.58687 0
-1.27633 5.53136 0
-2.08456 7.59637 0
-2.68504 8.14565 0
-2.75694 7.33406 0
-1.91811 5.29395 0
-1.17605 3.40186 0
-0.597584 1.77706 0
-0.213959 0.570457 0
0 0 0
      </DataArray> 
    </PointData>
    <CellData>
    </CellData>
  </Piece>
  </UnstructuredGrid>
</VTKFile>
