<?xml version="1.0"?>
<VTKFile type="UnstructuredGrid">
  <UnstructuredGrid>
  <Piece NumberOfPoints="13"  NumberOfCells="23">
    <Points>
      <DataArray type="Float64" NumberOfComponents="3" format="ascii">
0 0 0
3.00756 0.0355755 0
6.01241 0.117963 0
9.01428 0.236278 0
12.0133 0.379678 0
15.0097 0.53726 0
15.9829 1.08811 0
14.9587 1.53586 0
11.9653 1.37832 0
8.97289 1.23521 0
5.98121 1.11725 0
2.99016 1.03518 0
0 1 0
      </DataArray>
    </Points>
    <Cells>
      <DataArray type="Int32" Name="connectivity" format="ascii">
0 1
1 2
2 3
3 4
4 5
5 6
0 12
0 11
1 11
1 10
2 10
2 9
3 9
3 8
4 8
4 7
5 7
7 6
11 12
11 10
10 9
8 9
7 8
      </DataArray>
      <DataArray type="Int32" Name="offsets" format="ascii">
2
4
6
8
10
12
14
16
18
20
22
24
26
28
30
32
34
36
38
40
42
44
46
      </DataArray>
      <DataArray type="UInt8" Name="types" format="ascii">
4
4
4
4
4
4
4
4
4
4
4
4
4
4
4
4
4
4
4
4
4
4
4
      </DataArray>
    </Cells>
    <PointData>
      <DataArray type="Float64" NumberOfComponents="3" Name="Displacement" format="ascii">
0 0 0
0.00755708 0.0355755 0
0.0124123 0.117963 0
0.0142797 0.236278 0
0.0132614 0.379678 0
0.0097352 0.53726 0
-0.0170557 0.58811 0
-0.0412526 0.535856 0
-0.0347252 0.378323 0
-0.0271139 0.235209 0
-0.0187875 0.117252 0
-0.0098438 0.0351834 0
0 0 0
      </DataArray> 
    </PointData>
    <CellData>
    </CellData>
  </Piece>
  </UnstructuredGrid>
</VTKFile>
