<?xml version="1.0"?>
<VTKFile type="UnstructuredGrid">
  <UnstructuredGrid>
  <Piece NumberOfPoints="13"  NumberOfCells="23">
    <Points>
      <DataArray type="Float64" NumberOfComponents="3" format="ascii">
0 0 0
3.0162 0.0802593 0
6.02385 0.265111 0
9.02155 0.529866 0
12.0098 0.850143 0
14.9906 1.20162 0
15.9272 1.81327 0
14.8768 2.19489 0
11.9028 1.84393 0
8.92914 1.52508 0
5.95415 1.26211 0
2.97731 1.07885 0
0 1 0
      </DataArray>
    </Points>
    <Cells>
      <DataArray type="Int32" Name="connectivity" format="ascii">
0 1
1 2
2 3
3 4
4 5
5 6
0 12
0 11
1 11
1 10
2 10
2 9
3 9
3 8
4 8
4 7
5 7
7 6
11 12
11 10
10 9
8 9
7 8
      </DataArray>
      <DataArray type="Int32" Name="offsets" format="ascii">
2
4
6
8
10
12
14
16
18
20
22
24
26
28
30
32
34
36
38
40
42
44
46
      </DataArray>
      <DataArray type="UInt8" Name="types" format="ascii">
4
4
4
4
4
4
4
4
4
4
4
4
4
4
4
4
4
4
4
4
4
4
4
      </DataArray>
    </Cells>
    <PointData>
      <DataArray type="Float64" NumberOfComponents="3" Name="Displacement" format="ascii">
0 0 0
0.0162003 0.0802593 0
0.023848 0.265111 0
0.0215455 0.529866 0
0.00982801 0.850143 0
-0.00941133 1.20162 0
-0.0728226 1.31327 0
-0.123151 1.19489 0
-0.0972332 0.843928 0
-0.0708576 0.525081 0
-0.0458482 0.262112 0
-0.0226914 0.0788519 0
0 0 0
      </DataArray> 
    </PointData>
    <CellData>
    </CellData>
  </Piece>
  </UnstructuredGrid>
</VTKFile>
