<?xml version="1.0"?>
<VTKFile type="UnstructuredGrid">
  <UnstructuredGrid>
  <Piece NumberOfPoints="13"  NumberOfCells="23">
    <Points>
      <DataArray type="Float64" NumberOfComponents="3" format="ascii">
0 0 0
3.04977 0.385944 0
5.98824 1.22862 0
8.79607 2.39412 0
11.4894 3.76823 0
14.1053 5.25144 0
14.7392 6.17604 0
13.624 6.12662 0
11.0336 4.65581 0
8.39737 3.30792 0
5.68222 2.17616 0
2.87643 1.36459 0
0 1 0
      </DataArray>
    </Points>
    <Cells>
      <DataArray type="Int32" Name="connectivity" format="ascii">
0 1
1 2
2 3
3 4
4 5
5 6
0 12
0 11
1 11
1 10
2 10
2 9
3 9
3 8
4 8
4 7
5 7
7 6
11 12
11 10
10 9
8 9
7 8
      </DataArray>
      <DataArray type="Int32" Name="offsets" format="ascii">
2
4
6
8
10
12
14
16
18
20
22
24
26
28
30
32
34
36
38
40
42
44
46
      </DataArray>
      <DataArray type="UInt8" Name="types" format="ascii">
4
4
4
4
4
4
4
4
4
4
4
4
4
4
4
4
4
4
4
4
4
4
4
      </DataArray>
    </Cells>
    <PointData>
      <DataArray type="Float64" NumberOfComponents="3" Name="Displacement" format="ascii">
0 0 0
0.0497742 0.385944 0
-0.0117603 1.22862 0
-0.203934 2.39412 0
-0.510604 3.76823 0
-0.894676 5.25144 0
-1.2608 5.67604 0
-1.37604 5.12662 0
-0.966405 3.65581 0
-0.602629 2.30792 0
-0.317776 1.17616 0
-0.123574 0.364587 0
0 0 0
      </DataArray> 
    </PointData>
    <CellData>
    </CellData>
  </Piece>
  </UnstructuredGrid>
</VTKFile>
