<?xml version="1.0"?>
<VTKFile type="UnstructuredGrid">
  <UnstructuredGrid>
  <Piece NumberOfPoints="13"  NumberOfCells="23">
    <Points>
      <DataArray type="Float64" NumberOfComponents="3" format="ascii">
0 0 0
3.03974 0.682454 0
5.79911 2.06618 0
8.261 3.88458 0
10.4823 5.95432 0
12.5528 8.14246 0
12.892 9.21324 0
11.8397 8.84058 0
9.79999 6.68054 0
7.65082 4.67007 0
5.31628 2.93203 0
2.75846 1.62732 0
0 1 0
      </DataArray>
    </Points>
    <Cells>
      <DataArray type="Int32" Name="connectivity" format="ascii">
0 1
1 2
2 3
3 4
4 5
5 6
0 12
0 11
1 11
1 10
2 10
2 9
3 9
3 8
4 8
4 7
5 7
7 6
11 12
11 10
10 9
8 9
7 8
      </DataArray>
      <DataArray type="Int32" Name="offsets" format="ascii">
2
4
6
8
10
12
14
16
18
20
22
24
26
28
30
32
34
36
38
40
42
44
46
      </DataArray>
      <DataArray type="UInt8" Name="types" format="ascii">
4
4
4
4
4
4
4
4
4
4
4
4
4
4
4
4
4
4
4
4
4
4
4
      </DataArray>
    </Cells>
    <PointData>
      <DataArray type="Float64" NumberOfComponents="3" Name="Displacement" format="ascii">
0 0 0
0.0397423 0.682454 0
-0.200889 2.06618 0
-0.738996 3.88458 0
-1.51767 5.95432 0
-2.44722 8.14246 0
-3.10803 8.71324 0
-3.16035 7.84058 0
-2.20001 5.68054 0
-1.34918 3.67007 0
-0.683723 1.93203 0
-0.241543 0.627317 0
0 0 0
      </DataArray> 
    </PointData>
    <CellData>
    </CellData>
  </Piece>
  </UnstructuredGrid>
</VTKFile>
