<?xml version="1.0"?>
<VTKFile type="UnstructuredGrid">
  <UnstructuredGrid>
  <Piece NumberOfPoints="13"  NumberOfCells="23">
    <Points>
      <DataArray type="Float64" NumberOfComponents="3" format="ascii">
0 0 0
3.04863 0.359328 0
5.99855 1.14834 0
8.8319 2.24396 0
11.5624 3.53942 0
14.2228 4.94023 0
14.8846 5.84478 0
13.7683 5.82977 0
11.1324 4.43994 0
8.45642 3.16779 0
5.71099 2.10204 0
2.88606 1.34046 0
0 1 0
      </DataArray>
    </Points>
    <Cells>
      <DataArray type="Int32" Name="connectivity" format="ascii">
0 1
1 2
2 3
3 4
4 5
5 6
0 12
0 11
1 11
1 10
2 10
2 9
3 9
3 8
4 8
4 7
5 7
7 6
11 12
11 10
10 9
8 9
7 8
      </DataArray>
      <DataArray type="Int32" Name="offsets" format="ascii">
2
4
6
8
10
12
14
16
18
20
22
24
26
28
30
32
34
36
38
40
42
44
46
      </DataArray>
      <DataArray type="UInt8" Name="types" format="ascii">
4
4
4
4
4
4
4
4
4
4
4
4
4
4
4
4
4
4
4
4
4
4
4
      </DataArray>
    </Cells>
    <PointData>
      <DataArray type="Float64" NumberOfComponents="3" Name="Displacement" format="ascii">
0 0 0
0.0486259 0.359328 0
-0.00145182 1.14834 0
-0.168097 2.24396 0
-0.4376 3.53942 0
-0.777204 4.94023 0
-1.11538 5.34478 0
-1.23166 4.82977 0
-0.867592 3.43994 0
-0.543582 2.16779 0
-0.289008 1.10204 0
-0.113945 0.340455 0
0 0 0
      </DataArray> 
    </PointData>
    <CellData>
    </CellData>
  </Piece>
  </UnstructuredGrid>
</VTKFile>
