<?xml version="1.0"?>
<VTKFile type="UnstructuredGrid">
  <UnstructuredGrid>
  <Piece NumberOfPoints="13"  NumberOfCells="23">
    <Points>
      <DataArray type="Float64" NumberOfComponents="3" format="ascii">
0 0 0
3.05118 0.45612 0
5.95527 1.43647 0
8.69003 2.77741 0
11.2791 4.34584 0
13.7715 6.0306 0
14.3321 7.002 0
13.2242 6.86588 0
10.7597 5.19734 0
8.23353 3.66307 0
5.60265 2.36656 0
2.85029 1.42769 0
0 1 0
      </DataArray>
    </Points>
    <Cells>
      <DataArray type="Int32" Name="connectivity" format="ascii">
0 1
1 2
2 3
3 4
4 5
5 6
0 12
0 11
1 11
1 10
2 10
2 9
3 9
3 8
4 8
4 7
5 7
7 6
11 12
11 10
10 9
8 9
7 8
      </DataArray>
      <DataArray type="Int32" Name="offsets" format="ascii">
2
4
6
8
10
12
14
16
18
20
22
24
26
28
30
32
34
36
38
40
42
44
46
      </DataArray>
      <DataArray type="UInt8" Name="types" format="ascii">
4
4
4
4
4
4
4
4
4
4
4
4
4
4
4
4
4
4
4
4
4
4
4
      </DataArray>
    </Cells>
    <PointData>
      <DataArray type="Float64" NumberOfComponents="3" Name="Displacement" format="ascii">
0 0 0
0.0511812 0.45612 0
-0.0447258 1.43647 0
-0.309974 2.77741 0
-0.720939 4.34584 0
-1.22847 6.0306 0
-1.66786 6.502 0
-1.77577 5.86588 0
-1.24034 4.19734 0
-0.766471 2.66307 0
-0.397353 1.36656 0
-0.149713 0.427693 0
0 0 0
      </DataArray> 
    </PointData>
    <CellData>
    </CellData>
  </Piece>
  </UnstructuredGrid>
</VTKFile>
