<?xml version="1.0"?>
<VTKFile type="UnstructuredGrid">
  <UnstructuredGrid>
  <Piece NumberOfPoints="13"  NumberOfCells="23">
    <Points>
      <DataArray type="Float64" NumberOfComponents="3" format="ascii">
0 0 0
3.05118 0.454762 0
5.95599 1.4325 0
8.69222 2.77017 0
11.2833 4.33502 0
13.7783 6.0161 0
14.3403 6.98667 0
13.2322 6.85217 0
10.7651 5.18724 0
8.2368 3.6564 0
5.60423 2.36294 0
2.8508 1.42648 0
0 1 0
      </DataArray>
    </Points>
    <Cells>
      <DataArray type="Int32" Name="connectivity" format="ascii">
0 1
1 2
2 3
3 4
4 5
5 6
0 12
0 11
1 11
1 10
2 10
2 9
3 9
3 8
4 8
4 7
5 7
7 6
11 12
11 10
10 9
8 9
7 8
      </DataArray>
      <DataArray type="Int32" Name="offsets" format="ascii">
2
4
6
8
10
12
14
16
18
20
22
24
26
28
30
32
34
36
38
40
42
44
46
      </DataArray>
      <DataArray type="UInt8" Name="types" format="ascii">
4
4
4
4
4
4
4
4
4
4
4
4
4
4
4
4
4
4
4
4
4
4
4
      </DataArray>
    </Cells>
    <PointData>
      <DataArray type="Float64" NumberOfComponents="3" Name="Displacement" format="ascii">
0 0 0
0.0511763 0.454762 0
-0.0440115 1.4325 0
-0.307775 2.77017 0
-0.71665 4.33502 0
-1.22173 6.0161 0
-1.6597 6.48667 0
-1.76782 5.85217 0
-1.23488 4.18724 0
-0.763201 2.6564 0
-0.395765 1.36294 0
-0.149197 0.426479 0
0 0 0
      </DataArray> 
    </PointData>
    <CellData>
    </CellData>
  </Piece>
  </UnstructuredGrid>
</VTKFile>
