<?xml version="1.0"?>
<VTKFile type="UnstructuredGrid">
  <UnstructuredGrid>
  <Piece NumberOfPoints="13"  NumberOfCells="23">
    <Points>
      <DataArray type="Float64" NumberOfComponents="3" format="ascii">
0 0 0
3.0473 0.335312 0
6.00677 1.07524 0
8.86198 2.10627 0
11.6246 3.32844 0
14.3238 4.65209 0
15.0108 5.53741 0
13.8945 5.55412 0
11.2187 4.24022 0
8.50804 3.03879 0
5.73623 2.03427 0
2.89461 1.31858 0
0 1 0
      </DataArray>
    </Points>
    <Cells>
      <DataArray type="Int32" Name="connectivity" format="ascii">
0 1
1 2
2 3
3 4
4 5
5 6
0 12
0 11
1 11
1 10
2 10
2 9
3 9
3 8
4 8
4 7
5 7
7 6
11 12
11 10
10 9
8 9
7 8
      </DataArray>
      <DataArray type="Int32" Name="offsets" format="ascii">
2
4
6
8
10
12
14
16
18
20
22
24
26
28
30
32
34
36
38
40
42
44
46
      </DataArray>
      <DataArray type="UInt8" Name="types" format="ascii">
4
4
4
4
4
4
4
4
4
4
4
4
4
4
4
4
4
4
4
4
4
4
4
      </DataArray>
    </Cells>
    <PointData>
      <DataArray type="Float64" NumberOfComponents="3" Name="Displacement" format="ascii">
0 0 0
0.0472994 0.335312 0
0.00676558 1.07524 0
-0.13802 2.10627 0
-0.37535 3.32844 0
-0.676236 4.65209 0
-0.989219 5.03741 0
-1.10553 4.55412 0
-0.781258 3.24022 0
-0.491959 2.03879 0
-0.263769 1.03427 0
-0.10539 0.318577 0
0 0 0
      </DataArray> 
    </PointData>
    <CellData>
    </CellData>
  </Piece>
  </UnstructuredGrid>
</VTKFile>
