<?xml version="1.0"?>
<VTKFile type="UnstructuredGrid">
  <UnstructuredGrid>
  <Piece NumberOfPoints="13"  NumberOfCells="23">
    <Points>
      <DataArray type="Float64" NumberOfComponents="3" format="ascii">
0 0 0
3.04879 0.563599 0
5.88983 1.74349 0
8.50011 3.32793 0
10.9175 5.15757 0
13.2106 7.108 0
13.6623 8.13546 0
12.576 7.87865 0
10.313 5.9503 0
7.96455 4.16711 0
5.4716 2.64421 0
2.80814 1.52311 0
0 1 0
      </DataArray>
    </Points>
    <Cells>
      <DataArray type="Int32" Name="connectivity" format="ascii">
0 1
1 2
2 3
3 4
4 5
5 6
0 12
0 11
1 11
1 10
2 10
2 9
3 9
3 8
4 8
4 7
5 7
7 6
11 12
11 10
10 9
8 9
7 8
      </DataArray>
      <DataArray type="Int32" Name="offsets" format="ascii">
2
4
6
8
10
12
14
16
18
20
22
24
26
28
30
32
34
36
38
40
42
44
46
      </DataArray>
      <DataArray type="UInt8" Name="types" format="ascii">
4
4
4
4
4
4
4
4
4
4
4
4
4
4
4
4
4
4
4
4
4
4
4
      </DataArray>
    </Cells>
    <PointData>
      <DataArray type="Float64" NumberOfComponents="3" Name="Displacement" format="ascii">
0 0 0
0.0487874 0.563599 0
-0.110169 1.74349 0
-0.499894 3.32793 0
-1.08247 5.15757 0
-1.78938 7.108 0
-2.33768 7.63546 0
-2.42396 6.87865 0
-1.68698 4.9503 0
-1.03545 3.16711 0
-0.528403 1.64421 0
-0.191862 0.523108 0
0 0 0
      </DataArray> 
    </PointData>
    <CellData>
    </CellData>
  </Piece>
  </UnstructuredGrid>
</VTKFile>
