<?xml version="1.0"?>
<VTKFile type="UnstructuredGrid">
  <UnstructuredGrid>
  <Piece NumberOfPoints="13"  NumberOfCells="23">
    <Points>
      <DataArray type="Float64" NumberOfComponents="3" format="ascii">
0 0 0
3.01323 0.0643446 0
6.0203 0.212843 0
9.02029 0.425751 0
12.0136 0.6835 0
15.0013 0.966504 0
15.9513 1.55691 0
14.9097 1.96211 0
11.9274 1.67941 0
8.94592 1.42258 0
5.96422 1.21083 0
2.98194 1.06336 0
0 1 0
      </DataArray>
    </Points>
    <Cells>
      <DataArray type="Int32" Name="connectivity" format="ascii">
0 1
1 2
2 3
3 4
4 5
5 6
0 12
0 11
1 11
1 10
2 10
2 9
3 9
3 8
4 8
4 7
5 7
7 6
11 12
11 10
10 9
8 9
7 8
      </DataArray>
      <DataArray type="Int32" Name="offsets" format="ascii">
2
4
6
8
10
12
14
16
18
20
22
24
26
28
30
32
34
36
38
40
42
44
46
      </DataArray>
      <DataArray type="UInt8" Name="types" format="ascii">
4
4
4
4
4
4
4
4
4
4
4
4
4
4
4
4
4
4
4
4
4
4
4
      </DataArray>
    </Cells>
    <PointData>
      <DataArray type="Float64" NumberOfComponents="3" Name="Displacement" format="ascii">
0 0 0
0.0132305 0.0643446 0
0.0202994 0.212843 0
0.0202944 0.425751 0
0.0135555 0.6835 0
0.00130672 0.966504 0
-0.0487082 1.05691 0
-0.0902703 0.962114 0
-0.0726374 0.679406 0
-0.0540792 0.422583 0
-0.0357802 0.210832 0
-0.0180552 0.0633638 0
0 0 0
      </DataArray> 
    </PointData>
    <CellData>
    </CellData>
  </Piece>
  </UnstructuredGrid>
</VTKFile>
