<?xml version="1.0"?>
<VTKFile type="UnstructuredGrid">
  <UnstructuredGrid>
  <Piece NumberOfPoints="13"  NumberOfCells="23">
    <Points>
      <DataArray type="Float64" NumberOfComponents="3" format="ascii">
0 0 0
3.04316 0.279571 0
6.02172 0.903259 0
8.92292 1.7789 0
11.7545 2.82264 0
14.5373 3.95701 0
15.2824 4.79346 0
14.1697 4.88605 0
11.4074 3.75871 0
8.62116 2.7301 0
5.79201 1.87366 0
2.91397 1.2674 0
0 1 0
      </DataArray>
    </Points>
    <Cells>
      <DataArray type="Int32" Name="connectivity" format="ascii">
0 1
1 2
2 3
3 4
4 5
5 6
0 12
0 11
1 11
1 10
2 10
2 9
3 9
3 8
4 8
4 7
5 7
7 6
11 12
11 10
10 9
8 9
7 8
      </DataArray>
      <DataArray type="Int32" Name="offsets" format="ascii">
2
4
6
8
10
12
14
16
18
20
22
24
26
28
30
32
34
36
38
40
42
44
46
      </DataArray>
      <DataArray type="UInt8" Name="types" format="ascii">
4
4
4
4
4
4
4
4
4
4
4
4
4
4
4
4
4
4
4
4
4
4
4
      </DataArray>
    </Cells>
    <PointData>
      <DataArray type="Float64" NumberOfComponents="3" Name="Displacement" format="ascii">
0 0 0
0.0431583 0.279571 0
0.0217222 0.903259 0
-0.0770841 1.7789 0
-0.245507 2.82264 0
-0.46268 3.95701 0
-0.717597 4.29346 0
-0.830346 3.88605 0
-0.592645 2.75871 0
-0.378838 1.7301 0
-0.207986 0.873662 0
-0.0860282 0.267396 0
0 0 0
      </DataArray> 
    </PointData>
    <CellData>
    </CellData>
  </Piece>
  </UnstructuredGrid>
</VTKFile>
