<?xml version="1.0"?>
<VTKFile type="UnstructuredGrid">
  <UnstructuredGrid>
  <Piece NumberOfPoints="13"  NumberOfCells="23">
    <Points>
      <DataArray type="Float64" NumberOfComponents="3" format="ascii">
0 0 0
3.05116 0.452045 0
5.95741 1.42456 0
8.69661 2.75566 0
11.2919 4.31332 0
13.7917 5.987 0
14.3566 6.95591 0
13.2481 6.82466 0
10.776 5.16699 0
8.24333 3.64302 0
5.60741 2.3557 0
2.85183 1.42405 0
0 1 0
      </DataArray>
    </Points>
    <Cells>
      <DataArray type="Int32" Name="connectivity" format="ascii">
0 1
1 2
2 3
3 4
4 5
5 6
0 12
0 11
1 11
1 10
2 10
2 9
3 9
3 8
4 8
4 7
5 7
7 6
11 12
11 10
10 9
8 9
7 8
      </DataArray>
      <DataArray type="Int32" Name="offsets" format="ascii">
2
4
6
8
10
12
14
16
18
20
22
24
26
28
30
32
34
36
38
40
42
44
46
      </DataArray>
      <DataArray type="UInt8" Name="types" format="ascii">
4
4
4
4
4
4
4
4
4
4
4
4
4
4
4
4
4
4
4
4
4
4
4
      </DataArray>
    </Cells>
    <PointData>
      <DataArray type="Float64" NumberOfComponents="3" Name="Displacement" format="ascii">
0 0 0
0.0511638 0.452045 0
-0.0425904 1.42456 0
-0.30339 2.75566 0
-0.708088 4.31332 0
-1.20825 5.987 0
-1.64341 6.45591 0
-1.75192 5.82466 0
-1.22397 4.16699 0
-0.756666 2.64302 0
-0.392593 1.3557 0
-0.148165 0.424048 0
0 0 0
      </DataArray> 
    </PointData>
    <CellData>
    </CellData>
  </Piece>
  </UnstructuredGrid>
</VTKFile>
