<?xml version="1.0"?>
<VTKFile type="UnstructuredGrid">
  <UnstructuredGrid>
  <Piece NumberOfPoints="13"  NumberOfCells="28">
    <Points>
      <DataArray type="Float64" NumberOfComponents="3" format="ascii">
0 0 0
3.04567 0.171638 0
6.05096 0.668354 0
8.98809 1.44287 0
11.8168 2.48658 0
14.5815 3.64916 0
15.3211 4.48688 0
14.2117 4.57857 0
11.4733 3.42364 0
8.69978 2.39884 0
5.84253 1.6458 0
2.93634 1.16464 0
0 1 0
      </DataArray>
    </Points>
    <Cells>
      <DataArray type="Int32" Name="connectivity" format="ascii">
0 1
1 2
2 3
3 4
4 5
5 6
0 12
0 11
1 11
1 10
2 10
2 9
3 9
3 8
4 8
4 7
5 7
7 6
11 12
11 10
10 9
8 9
7 8
12 1
11 2
10 3
9 4
8 5
      </DataArray>
      <DataArray type="Int32" Name="offsets" format="ascii">
2
4
6
8
10
12
14
16
18
20
22
24
26
28
30
32
34
36
38
40
42
44
46
48
50
52
54
56
      </DataArray>
      <DataArray type="UInt8" Name="types" format="ascii">
4
4
4
4
4
4
4
4
4
4
4
4
4
4
4
4
4
4
4
4
4
4
4
4
4
4
4
4
      </DataArray>
    </Cells>
    <PointData>
      <DataArray type="Float64" NumberOfComponents="3" Name="Displacement" format="ascii">
0 0 0
0.0456667 0.171638 0
0.0509634 0.668354 0
-0.0119094 1.44287 0
-0.183162 2.48658 0
-0.418535 3.64916 0
-0.678927 3.98688 0
-0.788278 3.57857 0
-0.526688 2.42364 0
-0.30022 1.39884 0
-0.157468 0.645796 0
-0.0636552 0.164637 0
0 0 0
      </DataArray> 
    </PointData>
    <CellData>
    </CellData>
  </Piece>
  </UnstructuredGrid>
</VTKFile>
