<?xml version="1.0"?>
<VTKFile type="UnstructuredGrid">
  <UnstructuredGrid>
  <Piece NumberOfPoints="13"  NumberOfCells="28">
    <Points>
      <DataArray type="Float64" NumberOfComponents="3" format="ascii">
0 0 0
3.12522 0.871166 0
5.35089 3.19835 0
6.41501 6.18152 0
6.28455 9.25616 0
5.69976 12.2211 0
5.04219 13.1362 0
4.71366 12.0755 0
5.29608 9.2156 0
5.45596 6.37727 0
4.52175 3.71189 0
2.63617 1.69339 0
0 1 0
      </DataArray>
    </Points>
    <Cells>
      <DataArray type="Int32" Name="connectivity" format="ascii">
0 1
1 2
2 3
3 4
4 5
5 6
0 12
0 11
1 11
1 10
2 10
2 9
3 9
3 8
4 8
4 7
5 7
7 6
11 12
11 10
10 9
8 9
7 8
12 1
11 2
10 3
9 4
8 5
      </DataArray>
      <DataArray type="Int32" Name="offsets" format="ascii">
2
4
6
8
10
12
14
16
18
20
22
24
26
28
30
32
34
36
38
40
42
44
46
48
50
52
54
56
      </DataArray>
      <DataArray type="UInt8" Name="types" format="ascii">
4
4
4
4
4
4
4
4
4
4
4
4
4
4
4
4
4
4
4
4
4
4
4
4
4
4
4
4
      </DataArray>
    </Cells>
    <PointData>
      <DataArray type="Float64" NumberOfComponents="3" Name="Displacement" format="ascii">
0 0 0
0.125216 0.871166 0
-0.649114 3.19835 0
-2.58499 6.18152 0
-5.71545 9.25616 0
-9.30024 12.2211 0
-10.9578 12.6362 0
-10.2863 11.0755 0
-6.70392 8.2156 0
-3.54404 5.37727 0
-1.47825 2.71189 0
-0.363827 0.693388 0
0 0 0
      </DataArray> 
    </PointData>
    <CellData>
    </CellData>
  </Piece>
  </UnstructuredGrid>
</VTKFile>
