<?xml version="1.0"?>
<VTKFile type="UnstructuredGrid">
  <UnstructuredGrid>
  <Piece NumberOfPoints="13"  NumberOfCells="28">
    <Points>
      <DataArray type="Float64" NumberOfComponents="3" format="ascii">
0 0 0
2.97864 0.994214 0
-0.0321932 0.994856 0
-3.04207 0.983076 0
-6.05824 1.00744 0
-9.07378 1.02693 0
-10.0783 0.521307 0
-9.06664 0.0296961 0
-6.05133 0.00759864 0
-3.03681 -0.0160381 0
-0.0289798 -0.00365872 0
2.98038 0.0112533 0
0 1 0
      </DataArray>
    </Points>
    <Cells>
      <DataArray type="Int32" Name="connectivity" format="ascii">
0 1
1 2
2 3
3 4
4 5
5 6
0 12
0 11
1 11
1 10
2 10
2 9
3 9
3 8
4 8
4 7
5 7
7 6
11 12
11 10
10 9
8 9
7 8
12 1
11 2
10 3
9 4
8 5
      </DataArray>
      <DataArray type="Int32" Name="offsets" format="ascii">
2
4
6
8
10
12
14
16
18
20
22
24
26
28
30
32
34
36
38
40
42
44
46
48
50
52
54
56
      </DataArray>
      <DataArray type="UInt8" Name="types" format="ascii">
4
4
4
4
4
4
4
4
4
4
4
4
4
4
4
4
4
4
4
4
4
4
4
4
4
4
4
4
      </DataArray>
    </Cells>
    <PointData>
      <DataArray type="Float64" NumberOfComponents="3" Name="Displacement" format="ascii">
0 0 0
-0.0213641 0.994214 0
-6.03219 0.994856 0
-12.0421 0.983076 0
-18.0582 1.00744 0
-24.0738 1.02693 0
-26.0783 0.021307 0
-24.0666 -0.970304 0
-18.0513 -0.992401 0
-12.0368 -1.01604 0
-6.02898 -1.00366 0
-0.0196224 -0.988747 0
0 0 0
      </DataArray> 
    </PointData>
    <CellData>
    </CellData>
  </Piece>
  </UnstructuredGrid>
</VTKFile>
