<?xml version="1.0"?>
<VTKFile type="UnstructuredGrid">
  <UnstructuredGrid>
  <Piece NumberOfPoints="13"  NumberOfCells="28">
    <Points>
      <DataArray type="Float64" NumberOfComponents="3" format="ascii">
0 0 0
2.99855 0.000424536 0
5.99708 0.00212491 0
8.9956 0.00496295 0
11.9927 0.0175899 0
14.9898 0.030248 0
15.9875 0.531927 0
14.9883 1.03075 0
11.9914 1.01759 0
8.99451 1.00511 0
5.99633 1.00242 0
2.99817 1.00072 0
0 1 0
      </DataArray>
    </Points>
    <Cells>
      <DataArray type="Int32" Name="connectivity" format="ascii">
0 1
1 2
2 3
3 4
4 5
5 6
0 12
0 11
1 11
1 10
2 10
2 9
3 9
3 8
4 8
4 7
5 7
7 6
11 12
11 10
10 9
8 9
7 8
12 1
11 2
10 3
9 4
8 5
      </DataArray>
      <DataArray type="Int32" Name="offsets" format="ascii">
2
4
6
8
10
12
14
16
18
20
22
24
26
28
30
32
34
36
38
40
42
44
46
48
50
52
54
56
      </DataArray>
      <DataArray type="UInt8" Name="types" format="ascii">
4
4
4
4
4
4
4
4
4
4
4
4
4
4
4
4
4
4
4
4
4
4
4
4
4
4
4
4
      </DataArray>
    </Cells>
    <PointData>
      <DataArray type="Float64" NumberOfComponents="3" Name="Displacement" format="ascii">
0 0 0
-0.00144679 0.000424536 0
-0.00292369 0.00212491 0
-0.00440343 0.00496295 0
-0.00728583 0.0175899 0
-0.0102467 0.030248 0
-0.0124803 0.0319272 0
-0.0116714 0.0307469 0
-0.00861392 0.0175916 0
-0.00548505 0.00511283 0
-0.00366722 0.00242166 0
-0.00182541 0.000722769 0
0 0 0
      </DataArray> 
    </PointData>
    <CellData>
    </CellData>
  </Piece>
  </UnstructuredGrid>
</VTKFile>
