<?xml version="1.0"?>
<VTKFile type="UnstructuredGrid">
  <UnstructuredGrid>
  <Piece NumberOfPoints="13"  NumberOfCells="28">
    <Points>
      <DataArray type="Float64" NumberOfComponents="3" format="ascii">
0 0 0
2.97944 0.993956 0
-0.0305959 0.995286 0
-3.03963 0.984601 0
-6.05447 1.00756 0
-9.06876 1.02609 0
-10.073 0.52106 0
-9.06236 0.0286245 0
-6.04829 0.00770623 0
-3.0349 -0.0145885 0
-0.0276742 -0.00336316 0
2.98103 0.0110092 0
0 1 0
      </DataArray>
    </Points>
    <Cells>
      <DataArray type="Int32" Name="connectivity" format="ascii">
0 1
1 2
2 3
3 4
4 5
5 6
0 12
0 11
1 11
1 10
2 10
2 9
3 9
3 8
4 8
4 7
5 7
7 6
11 12
11 10
10 9
8 9
7 8
12 1
11 2
10 3
9 4
8 5
      </DataArray>
      <DataArray type="Int32" Name="offsets" format="ascii">
2
4
6
8
10
12
14
16
18
20
22
24
26
28
30
32
34
36
38
40
42
44
46
48
50
52
54
56
      </DataArray>
      <DataArray type="UInt8" Name="types" format="ascii">
4
4
4
4
4
4
4
4
4
4
4
4
4
4
4
4
4
4
4
4
4
4
4
4
4
4
4
4
      </DataArray>
    </Cells>
    <PointData>
      <DataArray type="Float64" NumberOfComponents="3" Name="Displacement" format="ascii">
0 0 0
-0.0205555 0.993956 0
-6.0306 0.995286 0
-12.0396 0.984601 0
-18.0545 1.00756 0
-24.0688 1.02609 0
-26.073 0.0210605 0
-24.0624 -0.971376 0
-18.0483 -0.992294 0
-12.0349 -1.01459 0
-6.02767 -1.00336 0
-0.0189673 -0.988991 0
0 0 0
      </DataArray> 
    </PointData>
    <CellData>
    </CellData>
  </Piece>
  </UnstructuredGrid>
</VTKFile>
