<?xml version="1.0"?>
<VTKFile type="UnstructuredGrid">
  <UnstructuredGrid>
  <Piece NumberOfPoints="13"  NumberOfCells="28">
    <Points>
      <DataArray type="Float64" NumberOfComponents="3" format="ascii">
0 0 0
3.00378 0.0224689 0
6.00629 0.0889483 0
9.00663 0.194147 0
11.999 0.354815 0
14.9881 0.53292 0
15.9576 1.08484 0
14.9364 1.53255 0
11.951 1.35345 0
8.96672 1.19354 0
5.97782 1.08916 0
2.98896 1.02297 0
0 1 0
      </DataArray>
    </Points>
    <Cells>
      <DataArray type="Int32" Name="connectivity" format="ascii">
0 1
1 2
2 3
3 4
4 5
5 6
0 12
0 11
1 11
1 10
2 10
2 9
3 9
3 8
4 8
4 7
5 7
7 6
11 12
11 10
10 9
8 9
7 8
12 1
11 2
10 3
9 4
8 5
      </DataArray>
      <DataArray type="Int32" Name="offsets" format="ascii">
2
4
6
8
10
12
14
16
18
20
22
24
26
28
30
32
34
36
38
40
42
44
46
48
50
52
54
56
      </DataArray>
      <DataArray type="UInt8" Name="types" format="ascii">
4
4
4
4
4
4
4
4
4
4
4
4
4
4
4
4
4
4
4
4
4
4
4
4
4
4
4
4
      </DataArray>
    </Cells>
    <PointData>
      <DataArray type="Float64" NumberOfComponents="3" Name="Displacement" format="ascii">
0 0 0
0.00378407 0.0224689 0
0.00629411 0.0889483 0
0.00662824 0.194147 0
-0.00100576 0.354815 0
-0.0119414 0.53292 0
-0.0424067 0.584839 0
-0.0636373 0.53255 0
-0.0489616 0.353446 0
-0.0332827 0.193545 0
-0.0221848 0.0891608 0
-0.011036 0.0229718 0
0 0 0
      </DataArray> 
    </PointData>
    <CellData>
    </CellData>
  </Piece>
  </UnstructuredGrid>
</VTKFile>
