<?xml version="1.0"?>
<VTKFile type="UnstructuredGrid">
  <UnstructuredGrid>
  <Piece NumberOfPoints="13"  NumberOfCells="28">
    <Points>
      <DataArray type="Float64" NumberOfComponents="3" format="ascii">
0 0 0
2.97853 0.994249 0
-0.0324088 0.994799 0
-3.0424 0.982872 0
-6.05875 1.00742 0
-9.07445 1.02704 0
-10.079 0.521335 0
-9.06722 0.0298362 0
-6.05175 0.00758277 0
-3.03707 -0.0162318 0
-0.0291564 -0.00369757 0
2.98029 0.0112861 0
0 1 0
      </DataArray>
    </Points>
    <Cells>
      <DataArray type="Int32" Name="connectivity" format="ascii">
0 1
1 2
2 3
3 4
4 5
5 6
0 12
0 11
1 11
1 10
2 10
2 9
3 9
3 8
4 8
4 7
5 7
7 6
11 12
11 10
10 9
8 9
7 8
12 1
11 2
10 3
9 4
8 5
      </DataArray>
      <DataArray type="Int32" Name="offsets" format="ascii">
2
4
6
8
10
12
14
16
18
20
22
24
26
28
30
32
34
36
38
40
42
44
46
48
50
52
54
56
      </DataArray>
      <DataArray type="UInt8" Name="types" format="ascii">
4
4
4
4
4
4
4
4
4
4
4
4
4
4
4
4
4
4
4
4
4
4
4
4
4
4
4
4
      </DataArray>
    </Cells>
    <PointData>
      <DataArray type="Float64" NumberOfComponents="3" Name="Displacement" format="ascii">
0 0 0
-0.0214733 0.994249 0
-6.03241 0.994799 0
-12.0424 0.982872 0
-18.0587 1.00742 0
-24.0745 1.02704 0
-26.079 0.0213355 0
-24.0672 -0.970164 0
-18.0517 -0.992417 0
-12.0371 -1.01623 0
-6.02916 -1.0037 0
-0.0197111 -0.988714 0
0 0 0
      </DataArray> 
    </PointData>
    <CellData>
    </CellData>
  </Piece>
  </UnstructuredGrid>
</VTKFile>
