<?xml version="1.0"?>
<VTKFile type="UnstructuredGrid">
  <UnstructuredGrid>
  <Piece NumberOfPoints="13"  NumberOfCells="28">
    <Points>
      <DataArray type="Float64" NumberOfComponents="3" format="ascii">
0 0 0
2.99842 0.000656799 0
5.9968 0.00309989 0
8.99517 0.00714313 0
11.9919 0.0225995 0
14.9886 0.0382423 0
15.9858 0.540563 0
14.9865 1.03881 0
11.99 1.0226 0
8.99363 1.00731 0
5.99573 1.00344 0
2.99787 1.00099 0
0 1 0
      </DataArray>
    </Points>
    <Cells>
      <DataArray type="Int32" Name="connectivity" format="ascii">
0 1
1 2
2 3
3 4
4 5
5 6
0 12
0 11
1 11
1 10
2 10
2 9
3 9
3 8
4 8
4 7
5 7
7 6
11 12
11 10
10 9
8 9
7 8
12 1
11 2
10 3
9 4
8 5
      </DataArray>
      <DataArray type="Int32" Name="offsets" format="ascii">
2
4
6
8
10
12
14
16
18
20
22
24
26
28
30
32
34
36
38
40
42
44
46
48
50
52
54
56
      </DataArray>
      <DataArray type="UInt8" Name="types" format="ascii">
4
4
4
4
4
4
4
4
4
4
4
4
4
4
4
4
4
4
4
4
4
4
4
4
4
4
4
4
      </DataArray>
    </Cells>
    <PointData>
      <DataArray type="Float64" NumberOfComponents="3" Name="Displacement" format="ascii">
0 0 0
-0.00158109 0.000656799 0
-0.00320007 0.00309989 0
-0.0048295 0.00714313 0
-0.00807927 0.0225995 0
-0.0114392 0.0382423 0
-0.0141786 0.0405629 0
-0.0134699 0.0388055 0
-0.00997118 0.0225985 0
-0.00637393 0.00731126 0
-0.00426617 0.00343573 0
-0.00212529 0.000994489 0
0 0 0
      </DataArray> 
    </PointData>
    <CellData>
    </CellData>
  </Piece>
  </UnstructuredGrid>
</VTKFile>
