<?xml version="1.0"?>
<VTKFile type="UnstructuredGrid">
  <UnstructuredGrid>
  <Piece NumberOfPoints="13"  NumberOfCells="28">
    <Points>
      <DataArray type="Float64" NumberOfComponents="3" format="ascii">
0 0 0
3.12415 0.922386 0
5.23797 3.36617 0
6.09757 6.42087 0
5.72097 9.47745 0
4.89527 12.386 0
4.16477 13.2446 0
3.92455 12.1604 0
4.73915 9.3586 0
5.12811 6.54663 0
4.38183 3.82866 0
2.61211 1.72315 0
0 1 0
      </DataArray>
    </Points>
    <Cells>
      <DataArray type="Int32" Name="connectivity" format="ascii">
0 1
1 2
2 3
3 4
4 5
5 6
0 12
0 11
1 11
1 10
2 10
2 9
3 9
3 8
4 8
4 7
5 7
7 6
11 12
11 10
10 9
8 9
7 8
12 1
11 2
10 3
9 4
8 5
      </DataArray>
      <DataArray type="Int32" Name="offsets" format="ascii">
2
4
6
8
10
12
14
16
18
20
22
24
26
28
30
32
34
36
38
40
42
44
46
48
50
52
54
56
      </DataArray>
      <DataArray type="UInt8" Name="types" format="ascii">
4
4
4
4
4
4
4
4
4
4
4
4
4
4
4
4
4
4
4
4
4
4
4
4
4
4
4
4
      </DataArray>
    </Cells>
    <PointData>
      <DataArray type="Float64" NumberOfComponents="3" Name="Displacement" format="ascii">
0 0 0
0.124153 0.922386 0
-0.762031 3.36617 0
-2.90243 6.42087 0
-6.27903 9.47745 0
-10.1047 12.386 0
-11.8352 12.7446 0
-11.0754 11.1604 0
-7.26085 8.3586 0
-3.87189 5.54663 0
-1.61817 2.82866 0
-0.387893 0.72315 0
0 0 0
      </DataArray> 
    </PointData>
    <CellData>
    </CellData>
  </Piece>
  </UnstructuredGrid>
</VTKFile>
