<?xml version="1.0"?>
<VTKFile type="UnstructuredGrid">
  <UnstructuredGrid>
  <Piece NumberOfPoints="13"  NumberOfCells="28">
    <Points>
      <DataArray type="Float64" NumberOfComponents="3" format="ascii">
0 0 0
2.99825 0.00183189 0
5.99642 0.00787809 0
8.99453 0.017706 0
11.9903 0.0441691 0
14.9859 0.0716933 0
15.9812 0.576999 0
14.981 1.07242 0
11.9858 1.04415 0
8.99077 1.01791 0
5.9938 1.00831 0
2.9969 1.00227 0
0 1 0
      </DataArray>
    </Points>
    <Cells>
      <DataArray type="Int32" Name="connectivity" format="ascii">
0 1
1 2
2 3
3 4
4 5
5 6
0 12
0 11
1 11
1 10
2 10
2 9
3 9
3 8
4 8
4 7
5 7
7 6
11 12
11 10
10 9
8 9
7 8
12 1
11 2
10 3
9 4
8 5
      </DataArray>
      <DataArray type="Int32" Name="offsets" format="ascii">
2
4
6
8
10
12
14
16
18
20
22
24
26
28
30
32
34
36
38
40
42
44
46
48
50
52
54
56
      </DataArray>
      <DataArray type="UInt8" Name="types" format="ascii">
4
4
4
4
4
4
4
4
4
4
4
4
4
4
4
4
4
4
4
4
4
4
4
4
4
4
4
4
      </DataArray>
    </Cells>
    <PointData>
      <DataArray type="Float64" NumberOfComponents="3" Name="Displacement" format="ascii">
0 0 0
-0.00175222 0.00183189 0
-0.00357983 0.00787809 0
-0.00546987 0.017706 0
-0.00965492 0.0441691 0
-0.0140988 0.0716933 0
-0.018824 0.0769992 0
-0.0190174 0.0724156 0
-0.0142305 0.0441486 0
-0.00922883 0.0179148 0
-0.0062035 0.00831479 0
-0.00310023 0.00227291 0
0 0 0
      </DataArray> 
    </PointData>
    <CellData>
    </CellData>
  </Piece>
  </UnstructuredGrid>
</VTKFile>
