<?xml version="1.0"?>
<VTKFile type="UnstructuredGrid">
  <UnstructuredGrid>
  <Piece NumberOfPoints="13"  NumberOfCells="28">
    <Points>
      <DataArray type="Float64" NumberOfComponents="3" format="ascii">
0 0 0
3.10778 1.22034 0
4.20977 4.32696 0
3.6746 7.47404 0
1.98646 10.0568 0
-0.0242355 12.3229 0
-1.05956 12.7756 0
-0.796138 11.6942 0
1.15709 9.51818 0
2.74815 7.16774 0
3.24793 4.40884 0
2.47849 1.83619 0
0 1 0
      </DataArray>
    </Points>
    <Cells>
      <DataArray type="Int32" Name="connectivity" format="ascii">
0 1
1 2
2 3
3 4
4 5
5 6
0 12
0 11
1 11
1 10
2 10
2 9
3 9
3 8
4 8
4 7
5 7
7 6
11 12
11 10
10 9
8 9
7 8
12 1
11 2
10 3
9 4
8 5
      </DataArray>
      <DataArray type="Int32" Name="offsets" format="ascii">
2
4
6
8
10
12
14
16
18
20
22
24
26
28
30
32
34
36
38
40
42
44
46
48
50
52
54
56
      </DataArray>
      <DataArray type="UInt8" Name="types" format="ascii">
4
4
4
4
4
4
4
4
4
4
4
4
4
4
4
4
4
4
4
4
4
4
4
4
4
4
4
4
      </DataArray>
    </Cells>
    <PointData>
      <DataArray type="Float64" NumberOfComponents="3" Name="Displacement" format="ascii">
0 0 0
0.107781 1.22034 0
-1.79023 4.32696 0
-5.3254 7.47404 0
-10.0135 10.0568 0
-15.0242 12.3229 0
-17.0596 12.2756 0
-15.7961 10.6942 0
-10.8429 8.51818 0
-6.25185 6.16774 0
-2.75207 3.40884 0
-0.521511 0.836187 0
0 0 0
      </DataArray> 
    </PointData>
    <CellData>
    </CellData>
  </Piece>
  </UnstructuredGrid>
</VTKFile>
