<?xml version="1.0"?>
<VTKFile type="UnstructuredGrid">
  <UnstructuredGrid>
  <Piece NumberOfPoints="13"  NumberOfCells="28">
    <Points>
      <DataArray type="Float64" NumberOfComponents="3" format="ascii">
0 0 0
3.11114 1.1506 0
4.56344 4.09052 0
4.42677 7.27917 0
3.04915 10.0403 0
1.30247 12.5142 0
0.325313 13.0806 0
0.463928 11.9772 0
2.16294 9.60224 0
3.47061 7.08896 0
3.61884 4.29008 0
2.50639 1.82884 0
0 1 0
      </DataArray>
    </Points>
    <Cells>
      <DataArray type="Int32" Name="connectivity" format="ascii">
0 1
1 2
2 3
3 4
4 5
5 6
0 12
0 11
1 11
1 10
2 10
2 9
3 9
3 8
4 8
4 7
5 7
7 6
11 12
11 10
10 9
8 9
7 8
12 1
11 2
10 3
9 4
8 5
      </DataArray>
      <DataArray type="Int32" Name="offsets" format="ascii">
2
4
6
8
10
12
14
16
18
20
22
24
26
28
30
32
34
36
38
40
42
44
46
48
50
52
54
56
      </DataArray>
      <DataArray type="UInt8" Name="types" format="ascii">
4
4
4
4
4
4
4
4
4
4
4
4
4
4
4
4
4
4
4
4
4
4
4
4
4
4
4
4
      </DataArray>
    </Cells>
    <PointData>
      <DataArray type="Float64" NumberOfComponents="3" Name="Displacement" format="ascii">
0 0 0
0.111137 1.1506 0
-1.43656 4.09052 0
-4.57323 7.27917 0
-8.95085 10.0403 0
-13.6975 12.5142 0
-15.6747 12.5806 0
-14.5361 10.9772 0
-9.83706 8.60224 0
-5.52939 6.08896 0
-2.38116 3.29008 0
-0.493608 0.828843 0
0 0 0
      </DataArray> 
    </PointData>
    <CellData>
    </CellData>
  </Piece>
  </UnstructuredGrid>
</VTKFile>
