<?xml version="1.0"?>
<VTKFile type="UnstructuredGrid">
  <UnstructuredGrid>
  <Piece NumberOfPoints="13"  NumberOfCells="28">
    <Points>
      <DataArray type="Float64" NumberOfComponents="3" format="ascii">
0 0 0
3.09861 0.443667 0
5.95472 1.69738 0
8.42576 3.5635 0
10.3809 5.89857 0
12.0621 8.39379 0
12.236 9.50159 0
11.2544 8.98136 0
9.61736 6.5353 0
7.76261 4.30145 0
5.45381 2.55463 0
2.82831 1.39581 0
0 1 0
      </DataArray>
    </Points>
    <Cells>
      <DataArray type="Int32" Name="connectivity" format="ascii">
0 1
1 2
2 3
3 4
4 5
5 6
0 12
0 11
1 11
1 10
2 10
2 9
3 9
3 8
4 8
4 7
5 7
7 6
11 12
11 10
10 9
8 9
7 8
12 1
11 2
10 3
9 4
8 5
      </DataArray>
      <DataArray type="Int32" Name="offsets" format="ascii">
2
4
6
8
10
12
14
16
18
20
22
24
26
28
30
32
34
36
38
40
42
44
46
48
50
52
54
56
      </DataArray>
      <DataArray type="UInt8" Name="types" format="ascii">
4
4
4
4
4
4
4
4
4
4
4
4
4
4
4
4
4
4
4
4
4
4
4
4
4
4
4
4
      </DataArray>
    </Cells>
    <PointData>
      <DataArray type="Float64" NumberOfComponents="3" Name="Displacement" format="ascii">
0 0 0
0.0986061 0.443667 0
-0.0452839 1.69738 0
-0.574236 3.5635 0
-1.61906 5.89857 0
-2.93786 8.39379 0
-3.764 9.00159 0
-3.74557 7.98136 0
-2.38264 5.5353 0
-1.23739 3.30145 0
-0.546185 1.55463 0
-0.17169 0.395813 0
0 0 0
      </DataArray> 
    </PointData>
    <CellData>
    </CellData>
  </Piece>
  </UnstructuredGrid>
</VTKFile>
