<?xml version="1.0"?>
<VTKFile type="UnstructuredGrid">
  <UnstructuredGrid>
  <Piece NumberOfPoints="13"  NumberOfCells="28">
    <Points>
      <DataArray type="Float64" NumberOfComponents="3" format="ascii">
0 0 0
2.9792 0.994033 0
-0.0310711 0.995156 0
-3.04036 0.984145 0
-6.05559 1.00753 0
-9.07025 1.02634 0
-10.0746 0.521141 0
-9.06363 0.0289498 0
-6.0492 0.00767626 0
-3.03547 -0.0150224 0
-0.0280621 -0.0034525 0
2.98084 0.0110822 0
0 1 0
      </DataArray>
    </Points>
    <Cells>
      <DataArray type="Int32" Name="connectivity" format="ascii">
0 1
1 2
2 3
3 4
4 5
5 6
0 12
0 11
1 11
1 10
2 10
2 9
3 9
3 8
4 8
4 7
5 7
7 6
11 12
11 10
10 9
8 9
7 8
12 1
11 2
10 3
9 4
8 5
      </DataArray>
      <DataArray type="Int32" Name="offsets" format="ascii">
2
4
6
8
10
12
14
16
18
20
22
24
26
28
30
32
34
36
38
40
42
44
46
48
50
52
54
56
      </DataArray>
      <DataArray type="UInt8" Name="types" format="ascii">
4
4
4
4
4
4
4
4
4
4
4
4
4
4
4
4
4
4
4
4
4
4
4
4
4
4
4
4
      </DataArray>
    </Cells>
    <PointData>
      <DataArray type="Float64" NumberOfComponents="3" Name="Displacement" format="ascii">
0 0 0
-0.020796 0.994033 0
-6.03107 0.995156 0
-12.0404 0.984145 0
-18.0556 1.00753 0
-24.0703 1.02634 0
-26.0746 0.0211408 0
-24.0636 -0.97105 0
-18.0492 -0.992324 0
-12.0355 -1.01502 0
-6.02806 -1.00345 0
-0.0191618 -0.988918 0
0 0 0
      </DataArray> 
    </PointData>
    <CellData>
    </CellData>
  </Piece>
  </UnstructuredGrid>
</VTKFile>
