<?xml version="1.0"?>
<VTKFile type="UnstructuredGrid">
  <UnstructuredGrid>
  <Piece NumberOfPoints="13"  NumberOfCells="28">
    <Points>
      <DataArray type="Float64" NumberOfComponents="3" format="ascii">
0 0 0
2.97964 0.993893 0
-0.030207 0.995392 0
-3.03904 0.984976 0
-6.05355 1.00759 0
-9.06754 1.02587 0
-10.0717 0.52099 0
-9.06131 0.0283536 0
-6.04755 0.00772928 0
-3.03444 -0.0142318 0
-0.027357 -0.00328914 0
2.98119 0.0109493 0
0 1 0
      </DataArray>
    </Points>
    <Cells>
      <DataArray type="Int32" Name="connectivity" format="ascii">
0 1
1 2
2 3
3 4
4 5
5 6
0 12
0 11
1 11
1 10
2 10
2 9
3 9
3 8
4 8
4 7
5 7
7 6
11 12
11 10
10 9
8 9
7 8
12 1
11 2
10 3
9 4
8 5
      </DataArray>
      <DataArray type="Int32" Name="offsets" format="ascii">
2
4
6
8
10
12
14
16
18
20
22
24
26
28
30
32
34
36
38
40
42
44
46
48
50
52
54
56
      </DataArray>
      <DataArray type="UInt8" Name="types" format="ascii">
4
4
4
4
4
4
4
4
4
4
4
4
4
4
4
4
4
4
4
4
4
4
4
4
4
4
4
4
      </DataArray>
    </Cells>
    <PointData>
      <DataArray type="Float64" NumberOfComponents="3" Name="Displacement" format="ascii">
0 0 0
-0.0203586 0.993893 0
-6.03021 0.995392 0
-12.039 0.984976 0
-18.0536 1.00759 0
-24.0675 1.02587 0
-26.0717 0.0209899 0
-24.0613 -0.971646 0
-18.0475 -0.992271 0
-12.0344 -1.01423 0
-6.02736 -1.00329 0
-0.0188083 -0.989051 0
0 0 0
      </DataArray> 
    </PointData>
    <CellData>
    </CellData>
  </Piece>
  </UnstructuredGrid>
</VTKFile>
