<?xml version="1.0"?>
<VTKFile type="UnstructuredGrid">
  <UnstructuredGrid>
  <Piece NumberOfPoints="13"  NumberOfCells="28">
    <Points>
      <DataArray type="Float64" NumberOfComponents="3" format="ascii">
0 0 0
3.12063 1.00754 0
5.02547 3.63961 0
5.53259 6.78091 0
4.76475 9.76653 0
3.56762 12.5451 0
2.73092 13.3019 0
2.63486 12.1951 0
3.80651 9.5233 0
4.5567 6.79038 0
4.13033 4.01234 0
2.57205 1.76887 0
0 1 0
      </DataArray>
    </Points>
    <Cells>
      <DataArray type="Int32" Name="connectivity" format="ascii">
0 1
1 2
2 3
3 4
4 5
5 6
0 12
0 11
1 11
1 10
2 10
2 9
3 9
3 8
4 8
4 7
5 7
7 6
11 12
11 10
10 9
8 9
7 8
12 1
11 2
10 3
9 4
8 5
      </DataArray>
      <DataArray type="Int32" Name="offsets" format="ascii">
2
4
6
8
10
12
14
16
18
20
22
24
26
28
30
32
34
36
38
40
42
44
46
48
50
52
54
56
      </DataArray>
      <DataArray type="UInt8" Name="types" format="ascii">
4
4
4
4
4
4
4
4
4
4
4
4
4
4
4
4
4
4
4
4
4
4
4
4
4
4
4
4
      </DataArray>
    </Cells>
    <PointData>
      <DataArray type="Float64" NumberOfComponents="3" Name="Displacement" format="ascii">
0 0 0
0.120634 1.00754 0
-0.974526 3.63961 0
-3.46741 6.78091 0
-7.23525 9.76653 0
-11.4324 12.5451 0
-13.2691 12.8019 0
-12.3651 11.1951 0
-8.19349 8.5233 0
-4.4433 5.79038 0
-1.86967 3.01234 0
-0.427951 0.768867 0
0 0 0
      </DataArray> 
    </PointData>
    <CellData>
    </CellData>
  </Piece>
  </UnstructuredGrid>
</VTKFile>
