<?xml version="1.0"?>
<VTKFile type="UnstructuredGrid">
  <UnstructuredGrid>
  <Piece NumberOfPoints="13"  NumberOfCells="28">
    <Points>
      <DataArray type="Float64" NumberOfComponents="3" format="ascii">
0 0 0
3.1141 1.10954 0
4.71569 3.96076 0
4.77446 7.1498 0
3.5679 9.98927 0
1.97157 12.5619 0
1.03054 13.1859 0
1.10198 12.0764 0
2.65668 9.60613 0
3.80841 7.01859 0
3.78328 4.21457 0
2.52475 1.81488 0
0 1 0
      </DataArray>
    </Points>
    <Cells>
      <DataArray type="Int32" Name="connectivity" format="ascii">
0 1
1 2
2 3
3 4
4 5
5 6
0 12
0 11
1 11
1 10
2 10
2 9
3 9
3 8
4 8
4 7
5 7
7 6
11 12
11 10
10 9
8 9
7 8
12 1
11 2
10 3
9 4
8 5
      </DataArray>
      <DataArray type="Int32" Name="offsets" format="ascii">
2
4
6
8
10
12
14
16
18
20
22
24
26
28
30
32
34
36
38
40
42
44
46
48
50
52
54
56
      </DataArray>
      <DataArray type="UInt8" Name="types" format="ascii">
4
4
4
4
4
4
4
4
4
4
4
4
4
4
4
4
4
4
4
4
4
4
4
4
4
4
4
4
      </DataArray>
    </Cells>
    <PointData>
      <DataArray type="Float64" NumberOfComponents="3" Name="Displacement" format="ascii">
0 0 0
0.114096 1.10954 0
-1.28431 3.96076 0
-4.22554 7.1498 0
-8.4321 9.98927 0
-13.0284 12.5619 0
-14.9695 12.6859 0
-13.898 11.0764 0
-9.34332 8.60613 0
-5.19159 6.01859 0
-2.21672 3.21457 0
-0.475254 0.814876 0
0 0 0
      </DataArray> 
    </PointData>
    <CellData>
    </CellData>
  </Piece>
  </UnstructuredGrid>
</VTKFile>
