<?xml version="1.0"?>
<VTKFile type="UnstructuredGrid">
  <UnstructuredGrid>
  <Piece NumberOfPoints="13"  NumberOfCells="28">
    <Points>
      <DataArray type="Float64" NumberOfComponents="3" format="ascii">
0 0 0
3.12295 0.957569 0
5.15422 3.47995 0
5.8701 6.57537 0
5.32898 9.60857 0
4.34536 12.4684 0
3.56874 13.2862 0
3.38857 12.1901 0
4.35509 9.43742 0
4.89637 6.65308 0
4.28108 3.90615 0
2.59555 1.74266 0
0 1 0
      </DataArray>
    </Points>
    <Cells>
      <DataArray type="Int32" Name="connectivity" format="ascii">
0 1
1 2
2 3
3 4
4 5
5 6
0 12
0 11
1 11
1 10
2 10
2 9
3 9
3 8
4 8
4 7
5 7
7 6
11 12
11 10
10 9
8 9
7 8
12 1
11 2
10 3
9 4
8 5
      </DataArray>
      <DataArray type="Int32" Name="offsets" format="ascii">
2
4
6
8
10
12
14
16
18
20
22
24
26
28
30
32
34
36
38
40
42
44
46
48
50
52
54
56
      </DataArray>
      <DataArray type="UInt8" Name="types" format="ascii">
4
4
4
4
4
4
4
4
4
4
4
4
4
4
4
4
4
4
4
4
4
4
4
4
4
4
4
4
      </DataArray>
    </Cells>
    <PointData>
      <DataArray type="Float64" NumberOfComponents="3" Name="Displacement" format="ascii">
0 0 0
0.122952 0.957569 0
-0.845777 3.47995 0
-3.1299 6.57537 0
-6.67102 9.60857 0
-10.6546 12.4684 0
-12.4313 12.7862 0
-11.6114 11.1901 0
-7.64491 8.43742 0
-4.10363 5.65308 0
-1.71892 2.90615 0
-0.404454 0.742662 0
0 0 0
      </DataArray> 
    </PointData>
    <CellData>
    </CellData>
  </Piece>
  </UnstructuredGrid>
</VTKFile>
