<?xml version="1.0"?>
<VTKFile type="UnstructuredGrid">
  <UnstructuredGrid>
  <Piece NumberOfPoints="13"  NumberOfCells="28">
    <Points>
      <DataArray type="Float64" NumberOfComponents="3" format="ascii">
0 0 0
3.07641 0.310603 0
6.02982 1.19944 0
8.78104 2.5588 0
11.2424 4.32837 0
13.5389 6.26502 0
14.003 7.28374 0
12.9166 7.04724 0
10.6604 5.13681 0
8.28578 3.4226 0
5.66522 2.12706 0
2.88294 1.2869 0
0 1 0
      </DataArray>
    </Points>
    <Cells>
      <DataArray type="Int32" Name="connectivity" format="ascii">
0 1
1 2
2 3
3 4
4 5
5 6
0 12
0 11
1 11
1 10
2 10
2 9
3 9
3 8
4 8
4 7
5 7
7 6
11 12
11 10
10 9
8 9
7 8
12 1
11 2
10 3
9 4
8 5
      </DataArray>
      <DataArray type="Int32" Name="offsets" format="ascii">
2
4
6
8
10
12
14
16
18
20
22
24
26
28
30
32
34
36
38
40
42
44
46
48
50
52
54
56
      </DataArray>
      <DataArray type="UInt8" Name="types" format="ascii">
4
4
4
4
4
4
4
4
4
4
4
4
4
4
4
4
4
4
4
4
4
4
4
4
4
4
4
4
      </DataArray>
    </Cells>
    <PointData>
      <DataArray type="Float64" NumberOfComponents="3" Name="Displacement" format="ascii">
0 0 0
0.0764114 0.310603 0
0.0298179 1.19944 0
-0.218961 2.5588 0
-0.757588 4.32837 0
-1.46113 6.26502 0
-1.99698 6.78374 0
-2.08336 6.04724 0
-1.33959 4.13681 0
-0.714222 2.4226 0
-0.334777 1.12706 0
-0.117063 0.286898 0
0 0 0
      </DataArray> 
    </PointData>
    <CellData>
    </CellData>
  </Piece>
  </UnstructuredGrid>
</VTKFile>
