<?xml version="1.0"?>
<VTKFile type="UnstructuredGrid">
  <UnstructuredGrid>
  <Piece NumberOfPoints="13"  NumberOfCells="28">
    <Points>
      <DataArray type="Float64" NumberOfComponents="3" format="ascii">
0 0 0
3.11541 0.592746 0
5.80793 2.23976 0
7.86345 4.59331 0
9.12934 7.37822 0
10.0161 10.2586 0
9.86617 11.372 0
9.07555 10.5924 0
8.22533 7.78702 0
7.0536 5.15833 0
5.17238 2.99541 0
2.76373 1.50874 0
0 1 0
      </DataArray>
    </Points>
    <Cells>
      <DataArray type="Int32" Name="connectivity" format="ascii">
0 1
1 2
2 3
3 4
4 5
5 6
0 12
0 11
1 11
1 10
2 10
2 9
3 9
3 8
4 8
4 7
5 7
7 6
11 12
11 10
10 9
8 9
7 8
12 1
11 2
10 3
9 4
8 5
      </DataArray>
      <DataArray type="Int32" Name="offsets" format="ascii">
2
4
6
8
10
12
14
16
18
20
22
24
26
28
30
32
34
36
38
40
42
44
46
48
50
52
54
56
      </DataArray>
      <DataArray type="UInt8" Name="types" format="ascii">
4
4
4
4
4
4
4
4
4
4
4
4
4
4
4
4
4
4
4
4
4
4
4
4
4
4
4
4
      </DataArray>
    </Cells>
    <PointData>
      <DataArray type="Float64" NumberOfComponents="3" Name="Displacement" format="ascii">
0 0 0
0.11541 0.592746 0
-0.192067 2.23976 0
-1.13655 4.59331 0
-2.87066 7.37822 0
-4.98387 10.2586 0
-6.13383 10.872 0
-5.92445 9.59243 0
-3.77467 6.78702 0
-1.9464 4.15833 0
-0.827622 1.99541 0
-0.236268 0.508743 0
0 0 0
      </DataArray> 
    </PointData>
    <CellData>
    </CellData>
  </Piece>
  </UnstructuredGrid>
</VTKFile>
