<?xml version="1.0"?>
<VTKFile type="UnstructuredGrid">
  <UnstructuredGrid>
  <Piece NumberOfPoints="13"  NumberOfCells="28">
    <Points>
      <DataArray type="Float64" NumberOfComponents="3" format="ascii">
0 0 0
3.12126 0.676842 0
5.69575 2.53729 0
7.47715 5.12206 0
8.32287 8.06875 0
8.7479 11.0552 0
8.42714 12.1329 0
7.76751 11.24 0
7.36987 8.34097 0
6.60515 5.57951 0
4.9935 3.2264 0
2.726 1.56824 0
0 1 0
      </DataArray>
    </Points>
    <Cells>
      <DataArray type="Int32" Name="connectivity" format="ascii">
0 1
1 2
2 3
3 4
4 5
5 6
0 12
0 11
1 11
1 10
2 10
2 9
3 9
3 8
4 8
4 7
5 7
7 6
11 12
11 10
10 9
8 9
7 8
12 1
11 2
10 3
9 4
8 5
      </DataArray>
      <DataArray type="Int32" Name="offsets" format="ascii">
2
4
6
8
10
12
14
16
18
20
22
24
26
28
30
32
34
36
38
40
42
44
46
48
50
52
54
56
      </DataArray>
      <DataArray type="UInt8" Name="types" format="ascii">
4
4
4
4
4
4
4
4
4
4
4
4
4
4
4
4
4
4
4
4
4
4
4
4
4
4
4
4
      </DataArray>
    </Cells>
    <PointData>
      <DataArray type="Float64" NumberOfComponents="3" Name="Displacement" format="ascii">
0 0 0
0.121259 0.676842 0
-0.304249 2.53729 0
-1.52285 5.12206 0
-3.67713 8.06875 0
-6.2521 11.0552 0
-7.57286 11.6329 0
-7.23249 10.24 0
-4.63013 7.34097 0
-2.39485 4.57951 0
-1.0065 2.2264 0
-0.274002 0.568235 0
0 0 0
      </DataArray> 
    </PointData>
    <CellData>
    </CellData>
  </Piece>
  </UnstructuredGrid>
</VTKFile>
