<?xml version="1.0"?>
<VTKFile type="UnstructuredGrid">
  <UnstructuredGrid>
  <Piece NumberOfPoints="13"  NumberOfCells="28">
    <Points>
      <DataArray type="Float64" NumberOfComponents="3" format="ascii">
0 0 0
2.97923 0.994026 0
-0.0310279 0.995168 0
-3.04029 0.984186 0
-6.05549 1.00753 0
-9.07012 1.02632 0
-10.0745 0.521134 0
-9.06352 0.0289205 0
-6.04911 0.00767906 0
-3.03542 -0.0149831 0
-0.0280268 -0.00344443 0
2.98086 0.0110756 0
0 1 0
      </DataArray>
    </Points>
    <Cells>
      <DataArray type="Int32" Name="connectivity" format="ascii">
0 1
1 2
2 3
3 4
4 5
5 6
0 12
0 11
1 11
1 10
2 10
2 9
3 9
3 8
4 8
4 7
5 7
7 6
11 12
11 10
10 9
8 9
7 8
12 1
11 2
10 3
9 4
8 5
      </DataArray>
      <DataArray type="Int32" Name="offsets" format="ascii">
2
4
6
8
10
12
14
16
18
20
22
24
26
28
30
32
34
36
38
40
42
44
46
48
50
52
54
56
      </DataArray>
      <DataArray type="UInt8" Name="types" format="ascii">
4
4
4
4
4
4
4
4
4
4
4
4
4
4
4
4
4
4
4
4
4
4
4
4
4
4
4
4
      </DataArray>
    </Cells>
    <PointData>
      <DataArray type="Float64" NumberOfComponents="3" Name="Displacement" format="ascii">
0 0 0
-0.0207742 0.994026 0
-6.03103 0.995168 0
-12.0403 0.984186 0
-18.0555 1.00753 0
-24.0701 1.02632 0
-26.0745 0.0211338 0
-24.0635 -0.97108 0
-18.0491 -0.992321 0
-12.0354 -1.01498 0
-6.02803 -1.00344 0
-0.0191441 -0.988924 0
0 0 0
      </DataArray> 
    </PointData>
    <CellData>
    </CellData>
  </Piece>
  </UnstructuredGrid>
</VTKFile>
