<?xml version="1.0"?>
<VTKFile type="UnstructuredGrid">
  <UnstructuredGrid>
  <Piece NumberOfPoints="13"  NumberOfCells="28">
    <Points>
      <DataArray type="Float64" NumberOfComponents="3" format="ascii">
0 0 0
3.09387 0.411499 0
5.97772 1.57809 0
8.52494 3.32733 0
10.6139 5.53902 0
12.455 7.91732 0
12.6999 9.01114 0
11.6865 8.55561 0
9.88959 6.22072 0
7.89934 4.09857 0
5.50846 2.45423 0
2.8418 1.37019 0
0 1 0
      </DataArray>
    </Points>
    <Cells>
      <DataArray type="Int32" Name="connectivity" format="ascii">
0 1
1 2
2 3
3 4
4 5
5 6
0 12
0 11
1 11
1 10
2 10
2 9
3 9
3 8
4 8
4 7
5 7
7 6
11 12
11 10
10 9
8 9
7 8
12 1
11 2
10 3
9 4
8 5
      </DataArray>
      <DataArray type="Int32" Name="offsets" format="ascii">
2
4
6
8
10
12
14
16
18
20
22
24
26
28
30
32
34
36
38
40
42
44
46
48
50
52
54
56
      </DataArray>
      <DataArray type="UInt8" Name="types" format="ascii">
4
4
4
4
4
4
4
4
4
4
4
4
4
4
4
4
4
4
4
4
4
4
4
4
4
4
4
4
      </DataArray>
    </Cells>
    <PointData>
      <DataArray type="Float64" NumberOfComponents="3" Name="Displacement" format="ascii">
0 0 0
0.0938735 0.411499 0
-0.0222784 1.57809 0
-0.475056 3.32733 0
-1.38606 5.53902 0
-2.54501 7.91732 0
-3.30006 8.51114 0
-3.31349 7.55561 0
-2.11041 5.22072 0
-1.10066 3.09857 0
-0.491541 1.45423 0
-0.158201 0.370192 0
0 0 0
      </DataArray> 
    </PointData>
    <CellData>
    </CellData>
  </Piece>
  </UnstructuredGrid>
</VTKFile>
