<?xml version="1.0"?>
<VTKFile type="UnstructuredGrid">
  <UnstructuredGrid>
  <Piece NumberOfPoints="13"  NumberOfCells="28">
    <Points>
      <DataArray type="Float64" NumberOfComponents="3" format="ascii">
0 0 0
3.09026 0.388594 0
5.99222 1.49271 0
8.5905 3.15644 0
10.7707 5.27492 0
12.7217 7.56279 0
13.0171 8.64374 0
11.9834 8.23592 0
10.0761 5.98741 0
7.99285 3.95034 0
5.54601 2.38159 0
2.8513 1.35168 0
0 1 0
      </DataArray>
    </Points>
    <Cells>
      <DataArray type="Int32" Name="connectivity" format="ascii">
0 1
1 2
2 3
3 4
4 5
5 6
0 12
0 11
1 11
1 10
2 10
2 9
3 9
3 8
4 8
4 7
5 7
7 6
11 12
11 10
10 9
8 9
7 8
12 1
11 2
10 3
9 4
8 5
      </DataArray>
      <DataArray type="Int32" Name="offsets" format="ascii">
2
4
6
8
10
12
14
16
18
20
22
24
26
28
30
32
34
36
38
40
42
44
46
48
50
52
54
56
      </DataArray>
      <DataArray type="UInt8" Name="types" format="ascii">
4
4
4
4
4
4
4
4
4
4
4
4
4
4
4
4
4
4
4
4
4
4
4
4
4
4
4
4
      </DataArray>
    </Cells>
    <PointData>
      <DataArray type="Float64" NumberOfComponents="3" Name="Displacement" format="ascii">
0 0 0
0.0902597 0.388594 0
-0.00777689 1.49271 0
-0.409502 3.15644 0
-1.22934 5.27492 0
-2.27829 7.56279 0
-2.9829 8.14374 0
-3.01661 7.23592 0
-1.92391 4.98741 0
-1.00715 2.95034 0
-0.453986 1.38159 0
-0.148703 0.351676 0
0 0 0
      </DataArray> 
    </PointData>
    <CellData>
    </CellData>
  </Piece>
  </UnstructuredGrid>
</VTKFile>
