<?xml version="1.0"?>
<VTKFile type="UnstructuredGrid">
  <UnstructuredGrid>
  <Piece NumberOfPoints="13"  NumberOfCells="28">
    <Points>
      <DataArray type="Float64" NumberOfComponents="3" format="ascii">
0 0 0
3.10803 1.20363 0
4.31562 4.26569 0
3.892 7.43008 0
2.28544 10.0646 0
0.342847 12.3891 0
-0.678199 12.8728 0
-0.447923 11.7842 0
1.43956 9.55262 0
2.956 7.15572 0
3.35755 4.38172 0
2.48441 1.83811 0
0 1 0
      </DataArray>
    </Points>
    <Cells>
      <DataArray type="Int32" Name="connectivity" format="ascii">
0 1
1 2
2 3
3 4
4 5
5 6
0 12
0 11
1 11
1 10
2 10
2 9
3 9
3 8
4 8
4 7
5 7
7 6
11 12
11 10
10 9
8 9
7 8
12 1
11 2
10 3
9 4
8 5
      </DataArray>
      <DataArray type="Int32" Name="offsets" format="ascii">
2
4
6
8
10
12
14
16
18
20
22
24
26
28
30
32
34
36
38
40
42
44
46
48
50
52
54
56
      </DataArray>
      <DataArray type="UInt8" Name="types" format="ascii">
4
4
4
4
4
4
4
4
4
4
4
4
4
4
4
4
4
4
4
4
4
4
4
4
4
4
4
4
      </DataArray>
    </Cells>
    <PointData>
      <DataArray type="Float64" NumberOfComponents="3" Name="Displacement" format="ascii">
0 0 0
0.108032 1.20363 0
-1.68438 4.26569 0
-5.108 7.43008 0
-9.71456 10.0646 0
-14.6572 12.3891 0
-16.6782 12.3728 0
-15.4479 10.7842 0
-10.5604 8.55262 0
-6.044 6.15572 0
-2.64245 3.38172 0
-0.515594 0.838111 0
0 0 0
      </DataArray> 
    </PointData>
    <CellData>
    </CellData>
  </Piece>
  </UnstructuredGrid>
</VTKFile>
