<?xml version="1.0"?>
<VTKFile type="UnstructuredGrid">
  <UnstructuredGrid>
  <Piece NumberOfPoints="13"  NumberOfCells="28">
    <Points>
      <DataArray type="Float64" NumberOfComponents="3" format="ascii">
0 0 0
2.99948 -1.02274e-05 0
5.99895 0.000104366 0
8.99843 0.000316834 0
11.9975 0.00340823 0
14.9965 0.00637769 0
15.996 0.506559 0
14.9964 1.00654 0
11.9974 1.00341 0
8.99836 1.00037 0
5.9989 1.0002 0
2.99946 1.00009 0
0 1 0
      </DataArray>
    </Points>
    <Cells>
      <DataArray type="Int32" Name="connectivity" format="ascii">
0 1
1 2
2 3
3 4
4 5
5 6
0 12
0 11
1 11
1 10
2 10
2 9
3 9
3 8
4 8
4 7
5 7
7 6
11 12
11 10
10 9
8 9
7 8
12 1
11 2
10 3
9 4
8 5
      </DataArray>
      <DataArray type="Int32" Name="offsets" format="ascii">
2
4
6
8
10
12
14
16
18
20
22
24
26
28
30
32
34
36
38
40
42
44
46
48
50
52
54
56
      </DataArray>
      <DataArray type="UInt8" Name="types" format="ascii">
4
4
4
4
4
4
4
4
4
4
4
4
4
4
4
4
4
4
4
4
4
4
4
4
4
4
4
4
      </DataArray>
    </Cells>
    <PointData>
      <DataArray type="Float64" NumberOfComponents="3" Name="Displacement" format="ascii">
0 0 0
-0.000519193 -1.02274e-05 0
-0.00104596 0.000104366 0
-0.0015694 0.000316834 0
-0.0025212 0.00340823 0
-0.00347913 0.00637769 0
-0.00402306 0.00655935 0
-0.00357892 0.00654119 0
-0.00261451 0.0034111 0
-0.00164453 0.00036679 0
-0.00109653 0.000200961 0
-0.000544631 8.67904e-05 0
0 0 0
      </DataArray> 
    </PointData>
    <CellData>
    </CellData>
  </Piece>
  </UnstructuredGrid>
</VTKFile>
