<?xml version="1.0"?>
<VTKFile type="UnstructuredGrid">
  <UnstructuredGrid>
  <Piece NumberOfPoints="13"  NumberOfCells="28">
    <Points>
      <DataArray type="Float64" NumberOfComponents="3" format="ascii">
0 0 0
2.97807 0.994394 0
-0.033314 0.994563 0
-3.04379 0.982021 0
-6.06088 1.00734 0
-9.0773 1.02748 0
-10.082 0.521444 0
-9.06964 0.0304138 0
-6.05347 0.00751336 0
-3.03815 -0.0170394 0
-0.0298988 -0.00385789 0
2.97992 0.0114227 0
0 1 0
      </DataArray>
    </Points>
    <Cells>
      <DataArray type="Int32" Name="connectivity" format="ascii">
0 1
1 2
2 3
3 4
4 5
5 6
0 12
0 11
1 11
1 10
2 10
2 9
3 9
3 8
4 8
4 7
5 7
7 6
11 12
11 10
10 9
8 9
7 8
12 1
11 2
10 3
9 4
8 5
      </DataArray>
      <DataArray type="Int32" Name="offsets" format="ascii">
2
4
6
8
10
12
14
16
18
20
22
24
26
28
30
32
34
36
38
40
42
44
46
48
50
52
54
56
      </DataArray>
      <DataArray type="UInt8" Name="types" format="ascii">
4
4
4
4
4
4
4
4
4
4
4
4
4
4
4
4
4
4
4
4
4
4
4
4
4
4
4
4
      </DataArray>
    </Cells>
    <PointData>
      <DataArray type="Float64" NumberOfComponents="3" Name="Displacement" format="ascii">
0 0 0
-0.0219316 0.994394 0
-6.03331 0.994563 0
-12.0438 0.982021 0
-18.0609 1.00734 0
-24.0773 1.02748 0
-26.082 0.0214437 0
-24.0696 -0.969586 0
-18.0535 -0.992487 0
-12.0382 -1.01704 0
-6.0299 -1.00386 0
-0.0200841 -0.988577 0
0 0 0
      </DataArray> 
    </PointData>
    <CellData>
    </CellData>
  </Piece>
  </UnstructuredGrid>
</VTKFile>
