<?xml version="1.0"?>
<VTKFile type="UnstructuredGrid">
  <UnstructuredGrid>
  <Piece NumberOfPoints="13"  NumberOfCells="28">
    <Points>
      <DataArray type="Float64" NumberOfComponents="3" format="ascii">
0 0 0
2.97879 0.994166 0
-0.0318912 0.994936 0
-3.04161 0.983362 0
-6.05753 1.00746 0
-9.07283 1.02677 0
-10.0773 0.521265 0
-9.06583 0.0294981 0
-6.05076 0.00762038 0
-3.03645 -0.0157661 0
-0.0287326 -0.00360389 0
2.9805 0.0112074 0
0 1 0
      </DataArray>
    </Points>
    <Cells>
      <DataArray type="Int32" Name="connectivity" format="ascii">
0 1
1 2
2 3
3 4
4 5
5 6
0 12
0 11
1 11
1 10
2 10
2 9
3 9
3 8
4 8
4 7
5 7
7 6
11 12
11 10
10 9
8 9
7 8
12 1
11 2
10 3
9 4
8 5
      </DataArray>
      <DataArray type="Int32" Name="offsets" format="ascii">
2
4
6
8
10
12
14
16
18
20
22
24
26
28
30
32
34
36
38
40
42
44
46
48
50
52
54
56
      </DataArray>
      <DataArray type="UInt8" Name="types" format="ascii">
4
4
4
4
4
4
4
4
4
4
4
4
4
4
4
4
4
4
4
4
4
4
4
4
4
4
4
4
      </DataArray>
    </Cells>
    <PointData>
      <DataArray type="Float64" NumberOfComponents="3" Name="Displacement" format="ascii">
0 0 0
-0.0212113 0.994166 0
-6.03189 0.994936 0
-12.0416 0.983362 0
-18.0575 1.00746 0
-24.0728 1.02677 0
-26.0773 0.0212654 0
-24.0658 -0.970502 0
-18.0508 -0.99238 0
-12.0364 -1.01577 0
-6.02873 -1.0036 0
-0.0194982 -0.988793 0
0 0 0
      </DataArray> 
    </PointData>
    <CellData>
    </CellData>
  </Piece>
  </UnstructuredGrid>
</VTKFile>
