<?xml version="1.0"?>
<VTKFile type="UnstructuredGrid">
  <UnstructuredGrid>
  <Piece NumberOfPoints="13"  NumberOfCells="28">
    <Points>
      <DataArray type="Float64" NumberOfComponents="3" format="ascii">
0 0 0
2.97789 0.994448 0
-0.0336586 0.994474 0
-3.04431 0.981699 0
-6.0617 1.0073 0
-9.07838 1.02765 0
-10.0832 0.52148 0
-9.07057 0.0306294 0
-6.05412 0.00748589 0
-3.03857 -0.0173444 0
-0.0301818 -0.00391775 0
2.97977 0.0114744 0
0 1 0
      </DataArray>
    </Points>
    <Cells>
      <DataArray type="Int32" Name="connectivity" format="ascii">
0 1
1 2
2 3
3 4
4 5
5 6
0 12
0 11
1 11
1 10
2 10
2 9
3 9
3 8
4 8
4 7
5 7
7 6
11 12
11 10
10 9
8 9
7 8
12 1
11 2
10 3
9 4
8 5
      </DataArray>
      <DataArray type="Int32" Name="offsets" format="ascii">
2
4
6
8
10
12
14
16
18
20
22
24
26
28
30
32
34
36
38
40
42
44
46
48
50
52
54
56
      </DataArray>
      <DataArray type="UInt8" Name="types" format="ascii">
4
4
4
4
4
4
4
4
4
4
4
4
4
4
4
4
4
4
4
4
4
4
4
4
4
4
4
4
      </DataArray>
    </Cells>
    <PointData>
      <DataArray type="Float64" NumberOfComponents="3" Name="Displacement" format="ascii">
0 0 0
-0.0221061 0.994448 0
-6.03366 0.994474 0
-12.0443 0.981699 0
-18.0617 1.0073 0
-24.0784 1.02765 0
-26.0832 0.0214804 0
-24.0706 -0.969371 0
-18.0541 -0.992514 0
-12.0386 -1.01734 0
-6.03018 -1.00392 0
-0.0202264 -0.988526 0
0 0 0
      </DataArray> 
    </PointData>
    <CellData>
    </CellData>
  </Piece>
  </UnstructuredGrid>
</VTKFile>
