<?xml version="1.0"?>
<VTKFile type="UnstructuredGrid">
  <UnstructuredGrid>
  <Piece NumberOfPoints="13"  NumberOfCells="28">
    <Points>
      <DataArray type="Float64" NumberOfComponents="3" format="ascii">
0 0 0
2.97792 0.994442 0
-0.0336155 0.994485 0
-3.04425 0.981739 0
-6.0616 1.00731 0
-9.07824 1.02763 0
-10.083 0.521476 0
-9.07045 0.0306026 0
-6.05404 0.00748935 0
-3.03851 -0.0173064 0
-0.0301464 -0.00391031 0
2.97979 0.011468 0
0 1 0
      </DataArray>
    </Points>
    <Cells>
      <DataArray type="Int32" Name="connectivity" format="ascii">
0 1
1 2
2 3
3 4
4 5
5 6
0 12
0 11
1 11
1 10
2 10
2 9
3 9
3 8
4 8
4 7
5 7
7 6
11 12
11 10
10 9
8 9
7 8
12 1
11 2
10 3
9 4
8 5
      </DataArray>
      <DataArray type="Int32" Name="offsets" format="ascii">
2
4
6
8
10
12
14
16
18
20
22
24
26
28
30
32
34
36
38
40
42
44
46
48
50
52
54
56
      </DataArray>
      <DataArray type="UInt8" Name="types" format="ascii">
4
4
4
4
4
4
4
4
4
4
4
4
4
4
4
4
4
4
4
4
4
4
4
4
4
4
4
4
      </DataArray>
    </Cells>
    <PointData>
      <DataArray type="Float64" NumberOfComponents="3" Name="Displacement" format="ascii">
0 0 0
-0.0220843 0.994442 0
-6.03362 0.994485 0
-12.0442 0.981739 0
-18.0616 1.00731 0
-24.0782 1.02763 0
-26.083 0.0214759 0
-24.0705 -0.969397 0
-18.054 -0.992511 0
-12.0385 -1.01731 0
-6.03015 -1.00391 0
-0.0202086 -0.988532 0
0 0 0
      </DataArray> 
    </PointData>
    <CellData>
    </CellData>
  </Piece>
  </UnstructuredGrid>
</VTKFile>
