<?xml version="1.0"?>
<VTKFile type="UnstructuredGrid">
  <UnstructuredGrid>
  <Piece NumberOfPoints="13"  NumberOfCells="28">
    <Points>
      <DataArray type="Float64" NumberOfComponents="3" format="ascii">
0 0 0
2.99896 0.00590596 0
5.99769 0.0240265 0
8.99609 0.0530145 0
11.9909 0.108834 0
14.985 0.168932 0
15.9749 0.683812 0
14.9706 1.16973 0
11.9776 1.10869 0
8.98504 1.05321 0
5.98987 1.02455 0
2.99491 1.00645 0
0 1 0
      </DataArray>
    </Points>
    <Cells>
      <DataArray type="Int32" Name="connectivity" format="ascii">
0 1
1 2
2 3
3 4
4 5
5 6
0 12
0 11
1 11
1 10
2 10
2 9
3 9
3 8
4 8
4 7
5 7
7 6
11 12
11 10
10 9
8 9
7 8
12 1
11 2
10 3
9 4
8 5
      </DataArray>
      <DataArray type="Int32" Name="offsets" format="ascii">
2
4
6
8
10
12
14
16
18
20
22
24
26
28
30
32
34
36
38
40
42
44
46
48
50
52
54
56
      </DataArray>
      <DataArray type="UInt8" Name="types" format="ascii">
4
4
4
4
4
4
4
4
4
4
4
4
4
4
4
4
4
4
4
4
4
4
4
4
4
4
4
4
      </DataArray>
    </Cells>
    <PointData>
      <DataArray type="Float64" NumberOfComponents="3" Name="Displacement" format="ascii">
0 0 0
-0.00104306 0.00590596 0
-0.00231369 0.0240265 0
-0.00390826 0.0530145 0
-0.00907781 0.108834 0
-0.0150106 0.168932 0
-0.0251438 0.183812 0
-0.0293921 0.169735 0
-0.0224351 0.108694 0
-0.0149618 0.0532051 0
-0.0101255 0.0245493 0
-0.00508576 0.00645279 0
0 0 0
      </DataArray> 
    </PointData>
    <CellData>
    </CellData>
  </Piece>
  </UnstructuredGrid>
</VTKFile>
