<?xml version="1.0"?>
<VTKFile type="UnstructuredGrid">
  <UnstructuredGrid>
  <Piece NumberOfPoints="13"  NumberOfCells="28">
    <Points>
      <DataArray type="Float64" NumberOfComponents="3" format="ascii">
0 0 0
3.12428 0.917873 0
5.24834 3.35149 0
6.12618 6.40046 0
5.77097 9.45942 0
4.96599 12.3736 0
4.24164 13.2374 0
3.99367 12.1549 0
4.78833 9.34737 0
5.15745 6.53239 0
4.39446 3.81856 0
2.61423 1.72059 0
0 1 0
      </DataArray>
    </Points>
    <Cells>
      <DataArray type="Int32" Name="connectivity" format="ascii">
0 1
1 2
2 3
3 4
4 5
5 6
0 12
0 11
1 11
1 10
2 10
2 9
3 9
3 8
4 8
4 7
5 7
7 6
11 12
11 10
10 9
8 9
7 8
12 1
11 2
10 3
9 4
8 5
      </DataArray>
      <DataArray type="Int32" Name="offsets" format="ascii">
2
4
6
8
10
12
14
16
18
20
22
24
26
28
30
32
34
36
38
40
42
44
46
48
50
52
54
56
      </DataArray>
      <DataArray type="UInt8" Name="types" format="ascii">
4
4
4
4
4
4
4
4
4
4
4
4
4
4
4
4
4
4
4
4
4
4
4
4
4
4
4
4
      </DataArray>
    </Cells>
    <PointData>
      <DataArray type="Float64" NumberOfComponents="3" Name="Displacement" format="ascii">
0 0 0
0.12428 0.917873 0
-0.751665 3.35149 0
-2.87382 6.40046 0
-6.22903 9.45942 0
-10.034 12.3736 0
-11.7584 12.7374 0
-11.0063 11.1549 0
-7.21167 8.34737 0
-3.84255 5.53239 0
-1.60554 2.81856 0
-0.38577 0.72059 0
0 0 0
      </DataArray> 
    </PointData>
    <CellData>
    </CellData>
  </Piece>
  </UnstructuredGrid>
</VTKFile>
