<?xml version="1.0"?>
<VTKFile type="UnstructuredGrid">
  <UnstructuredGrid>
  <Piece NumberOfPoints="13"  NumberOfCells="28">
    <Points>
      <DataArray type="Float64" NumberOfComponents="3" format="ascii">
0 0 0
3.10876 1.2351 0
4.0795 4.39073 0
3.41571 7.51203 0
1.63915 10.0341 0
-0.444081 12.234 0
-1.49399 12.652 0
-1.19439 11.5797 0
0.829114 9.4665 0
2.50138 7.16948 0
3.11436 4.43166 0
2.47462 1.828 0
0 1 0
      </DataArray>
    </Points>
    <Cells>
      <DataArray type="Int32" Name="connectivity" format="ascii">
0 1
1 2
2 3
3 4
4 5
5 6
0 12
0 11
1 11
1 10
2 10
2 9
3 9
3 8
4 8
4 7
5 7
7 6
11 12
11 10
10 9
8 9
7 8
12 1
11 2
10 3
9 4
8 5
      </DataArray>
      <DataArray type="Int32" Name="offsets" format="ascii">
2
4
6
8
10
12
14
16
18
20
22
24
26
28
30
32
34
36
38
40
42
44
46
48
50
52
54
56
      </DataArray>
      <DataArray type="UInt8" Name="types" format="ascii">
4
4
4
4
4
4
4
4
4
4
4
4
4
4
4
4
4
4
4
4
4
4
4
4
4
4
4
4
      </DataArray>
    </Cells>
    <PointData>
      <DataArray type="Float64" NumberOfComponents="3" Name="Displacement" format="ascii">
0 0 0
0.108755 1.2351 0
-1.9205 4.39073 0
-5.58429 7.51203 0
-10.3609 10.0341 0
-15.4441 12.234 0
-17.494 12.152 0
-16.1944 10.5797 0
-11.1709 8.4665 0
-6.49862 6.16948 0
-2.88564 3.43166 0
-0.525381 0.828004 0
0 0 0
      </DataArray> 
    </PointData>
    <CellData>
    </CellData>
  </Piece>
  </UnstructuredGrid>
</VTKFile>
