<?xml version="1.0"?>
<VTKFile type="UnstructuredGrid">
  <UnstructuredGrid>
  <Piece NumberOfPoints="13"  NumberOfCells="28">
    <Points>
      <DataArray type="Float64" NumberOfComponents="3" format="ascii">
0 0 0
2.97855 0.994242 0
-0.0323657 0.99481 0
-3.04234 0.982912 0
-6.05865 1.00742 0
-9.07432 1.02701 0
-10.0789 0.52133 0
-9.0671 0.0298083 0
-6.05166 0.00758596 0
-3.03702 -0.0161931 0
-0.0291211 -0.00368982 0
2.98031 0.0112795 0
0 1 0
      </DataArray>
    </Points>
    <Cells>
      <DataArray type="Int32" Name="connectivity" format="ascii">
0 1
1 2
2 3
3 4
4 5
5 6
0 12
0 11
1 11
1 10
2 10
2 9
3 9
3 8
4 8
4 7
5 7
7 6
11 12
11 10
10 9
8 9
7 8
12 1
11 2
10 3
9 4
8 5
      </DataArray>
      <DataArray type="Int32" Name="offsets" format="ascii">
2
4
6
8
10
12
14
16
18
20
22
24
26
28
30
32
34
36
38
40
42
44
46
48
50
52
54
56
      </DataArray>
      <DataArray type="UInt8" Name="types" format="ascii">
4
4
4
4
4
4
4
4
4
4
4
4
4
4
4
4
4
4
4
4
4
4
4
4
4
4
4
4
      </DataArray>
    </Cells>
    <PointData>
      <DataArray type="Float64" NumberOfComponents="3" Name="Displacement" format="ascii">
0 0 0
-0.0214515 0.994242 0
-6.03237 0.99481 0
-12.0423 0.982912 0
-18.0586 1.00742 0
-24.0743 1.02701 0
-26.0789 0.0213299 0
-24.0671 -0.970192 0
-18.0517 -0.992414 0
-12.037 -1.01619 0
-6.02912 -1.00369 0
-0.0196933 -0.98872 0
0 0 0
      </DataArray> 
    </PointData>
    <CellData>
    </CellData>
  </Piece>
  </UnstructuredGrid>
</VTKFile>
