<?xml version="1.0"?>
<VTKFile type="UnstructuredGrid">
  <UnstructuredGrid>
  <Piece NumberOfPoints="13"  NumberOfCells="28">
    <Points>
      <DataArray type="Float64" NumberOfComponents="3" format="ascii">
0 0 0
2.9784 0.99429 0
-0.0326675 0.994731 0
-3.0428 0.982628 0
-6.05936 1.00739 0
-9.07527 1.02717 0
-10.0799 0.521368 0
-9.06791 0.030003 0
-6.05224 0.00756337 0
-3.03738 -0.0164635 0
-0.0293684 -0.00374384 0
2.98018 0.0113252 0
0 1 0
      </DataArray>
    </Points>
    <Cells>
      <DataArray type="Int32" Name="connectivity" format="ascii">
0 1
1 2
2 3
3 4
4 5
5 6
0 12
0 11
1 11
1 10
2 10
2 9
3 9
3 8
4 8
4 7
5 7
7 6
11 12
11 10
10 9
8 9
7 8
12 1
11 2
10 3
9 4
8 5
      </DataArray>
      <DataArray type="Int32" Name="offsets" format="ascii">
2
4
6
8
10
12
14
16
18
20
22
24
26
28
30
32
34
36
38
40
42
44
46
48
50
52
54
56
      </DataArray>
      <DataArray type="UInt8" Name="types" format="ascii">
4
4
4
4
4
4
4
4
4
4
4
4
4
4
4
4
4
4
4
4
4
4
4
4
4
4
4
4
      </DataArray>
    </Cells>
    <PointData>
      <DataArray type="Float64" NumberOfComponents="3" Name="Displacement" format="ascii">
0 0 0
-0.0216043 0.99429 0
-6.03267 0.994731 0
-12.0428 0.982628 0
-18.0594 1.00739 0
-24.0753 1.02717 0
-26.0799 0.0213682 0
-24.0679 -0.969997 0
-18.0522 -0.992437 0
-12.0374 -1.01646 0
-6.02937 -1.00374 0
-0.0198176 -0.988675 0
0 0 0
      </DataArray> 
    </PointData>
    <CellData>
    </CellData>
  </Piece>
  </UnstructuredGrid>
</VTKFile>
