<?xml version="1.0"?>
<VTKFile type="UnstructuredGrid">
  <UnstructuredGrid>
  <Piece NumberOfPoints="13"  NumberOfCells="28">
    <Points>
      <DataArray type="Float64" NumberOfComponents="3" format="ascii">
0 0 0
2.9995 -1.14571e-05 0
5.99899 9.41016e-05 0
8.99849 0.000290822 0
11.9976 0.0032561 0
14.9966 0.00610246 0
15.9961 0.506273 0
14.9966 1.00626 0
11.9975 1.00326 0
8.99842 1.00034 0
5.99895 1.00019 0
2.99948 1.00008 0
0 1 0
      </DataArray>
    </Points>
    <Cells>
      <DataArray type="Int32" Name="connectivity" format="ascii">
0 1
1 2
2 3
3 4
4 5
5 6
0 12
0 11
1 11
1 10
2 10
2 9
3 9
3 8
4 8
4 7
5 7
7 6
11 12
11 10
10 9
8 9
7 8
12 1
11 2
10 3
9 4
8 5
      </DataArray>
      <DataArray type="Int32" Name="offsets" format="ascii">
2
4
6
8
10
12
14
16
18
20
22
24
26
28
30
32
34
36
38
40
42
44
46
48
50
52
54
56
      </DataArray>
      <DataArray type="UInt8" Name="types" format="ascii">
4
4
4
4
4
4
4
4
4
4
4
4
4
4
4
4
4
4
4
4
4
4
4
4
4
4
4
4
      </DataArray>
    </Cells>
    <PointData>
      <DataArray type="Float64" NumberOfComponents="3" Name="Displacement" format="ascii">
0 0 0
-0.000500492 -1.14571e-05 0
-0.00100826 9.41016e-05 0
-0.00151282 0.000290822 0
-0.00242954 0.0032561 0
-0.00335192 0.00610246 0
-0.00387364 0.00627327 0
-0.0034439 0.00625992 0
-0.00251554 0.00325889 0
-0.00158205 0.00033894 0
-0.00105486 0.000187118 0
-0.000523922 8.1967e-05 0
0 0 0
      </DataArray> 
    </PointData>
    <CellData>
    </CellData>
  </Piece>
  </UnstructuredGrid>
</VTKFile>
