<?xml version="1.0"?>
<VTKFile type="UnstructuredGrid">
  <UnstructuredGrid>
  <Piece NumberOfPoints="13"  NumberOfCells="28">
    <Points>
      <DataArray type="Float64" NumberOfComponents="3" format="ascii">
0 0 0
2.99956 -1.42908e-05 0
5.99911 6.67041e-05 0
8.99866 0.000220341 0
11.9978 0.00281333 0
14.997 0.00529725 0
15.9966 0.505438 0
14.997 1.00544 0
11.9978 1.00282 0
8.9986 1.00026 0
5.99907 1.00015 0
2.99954 1.00007 0
0 1 0
      </DataArray>
    </Points>
    <Cells>
      <DataArray type="Int32" Name="connectivity" format="ascii">
0 1
1 2
2 3
3 4
4 5
5 6
0 12
0 11
1 11
1 10
2 10
2 9
3 9
3 8
4 8
4 7
5 7
7 6
11 12
11 10
10 9
8 9
7 8
12 1
11 2
10 3
9 4
8 5
      </DataArray>
      <DataArray type="Int32" Name="offsets" format="ascii">
2
4
6
8
10
12
14
16
18
20
22
24
26
28
30
32
34
36
38
40
42
44
46
48
50
52
54
56
      </DataArray>
      <DataArray type="UInt8" Name="types" format="ascii">
4
4
4
4
4
4
4
4
4
4
4
4
4
4
4
4
4
4
4
4
4
4
4
4
4
4
4
4
      </DataArray>
    </Cells>
    <PointData>
      <DataArray type="Float64" NumberOfComponents="3" Name="Displacement" format="ascii">
0 0 0
-0.000444107 -1.42908e-05 0
-0.000894624 6.67041e-05 0
-0.00134225 0.000220341 0
-0.00215363 0.00281333 0
-0.00296943 0.00529725 0
-0.00342558 0.00543768 0
-0.00304013 0.00543656 0
-0.00221975 0.00281587 0
-0.00139544 0.00026294 0
-0.000930385 0.000148986 0
-0.000462078 6.83525e-05 0
0 0 0
      </DataArray> 
    </PointData>
    <CellData>
    </CellData>
  </Piece>
  </UnstructuredGrid>
</VTKFile>
