<?xml version="1.0"?>
<VTKFile type="UnstructuredGrid">
  <UnstructuredGrid>
  <Piece NumberOfPoints="13"  NumberOfCells="28">
    <Points>
      <DataArray type="Float64" NumberOfComponents="3" format="ascii">
0 0 0
2.99877 0.000212152 0
5.99752 0.00120553 0
8.99627 0.00288729 0
11.9939 0.0123262 0
14.9915 0.0216725 0
15.9898 0.522721 0
14.9906 1.02208 0
11.9931 1.01233 0
8.99563 1.00301 0
5.99708 1.00145 0
2.99855 1.00046 0
0 1 0
      </DataArray>
    </Points>
    <Cells>
      <DataArray type="Int32" Name="connectivity" format="ascii">
0 1
1 2
2 3
3 4
4 5
5 6
0 12
0 11
1 11
1 10
2 10
2 9
3 9
3 8
4 8
4 7
5 7
7 6
11 12
11 10
10 9
8 9
7 8
12 1
11 2
10 3
9 4
8 5
      </DataArray>
      <DataArray type="Int32" Name="offsets" format="ascii">
2
4
6
8
10
12
14
16
18
20
22
24
26
28
30
32
34
36
38
40
42
44
46
48
50
52
54
56
      </DataArray>
      <DataArray type="UInt8" Name="types" format="ascii">
4
4
4
4
4
4
4
4
4
4
4
4
4
4
4
4
4
4
4
4
4
4
4
4
4
4
4
4
      </DataArray>
    </Cells>
    <PointData>
      <DataArray type="Float64" NumberOfComponents="3" Name="Displacement" format="ascii">
0 0 0
-0.00122966 0.000212152 0
-0.00248144 0.00120553 0
-0.00373069 0.00288729 0
-0.00610428 0.0123262 0
-0.00852522 0.0216725 0
-0.0101914 0.0227213 0
-0.00936655 0.0220825 0
-0.00688916 0.0123298 0
-0.00436791 0.00301124 0
-0.00291702 0.00144877 0
-0.00145072 0.000456513 0
0 0 0
      </DataArray> 
    </PointData>
    <CellData>
    </CellData>
  </Piece>
  </UnstructuredGrid>
</VTKFile>
