<?xml version="1.0"?>
<VTKFile type="UnstructuredGrid">
  <UnstructuredGrid>
  <Piece NumberOfPoints="13"  NumberOfCells="28">
    <Points>
      <DataArray type="Float64" NumberOfComponents="3" format="ascii">
0 0 0
2.99826 0.00203052 0
5.99643 0.00867441 0
8.99453 0.0194563 0
11.9903 0.047539 0
14.9857 0.0768364 0
15.9807 0.582627 0
14.9803 1.07757 0
11.9852 1.04751 0
8.99041 1.01967 0
5.99355 1.00912 0
2.99677 1.00248 0
0 1 0
      </DataArray>
    </Points>
    <Cells>
      <DataArray type="Int32" Name="connectivity" format="ascii">
0 1
1 2
2 3
3 4
4 5
5 6
0 12
0 11
1 11
1 10
2 10
2 9
3 9
3 8
4 8
4 7
5 7
7 6
11 12
11 10
10 9
8 9
7 8
12 1
11 2
10 3
9 4
8 5
      </DataArray>
      <DataArray type="Int32" Name="offsets" format="ascii">
2
4
6
8
10
12
14
16
18
20
22
24
26
28
30
32
34
36
38
40
42
44
46
48
50
52
54
56
      </DataArray>
      <DataArray type="UInt8" Name="types" format="ascii">
4
4
4
4
4
4
4
4
4
4
4
4
4
4
4
4
4
4
4
4
4
4
4
4
4
4
4
4
      </DataArray>
    </Cells>
    <PointData>
      <DataArray type="Float64" NumberOfComponents="3" Name="Displacement" format="ascii">
0 0 0
-0.00174492 0.00203052 0
-0.00357173 0.00867441 0
-0.00547122 0.0194563 0
-0.00974958 0.047539 0
-0.0143112 0.0768364 0
-0.0193308 0.0826269 0
-0.0197038 0.0775734 0
-0.0147653 0.0475146 0
-0.00959454 0.0196681 0
-0.00645305 0.00912111 0
-0.00322631 0.00248208 0
0 0 0
      </DataArray> 
    </PointData>
    <CellData>
    </CellData>
  </Piece>
  </UnstructuredGrid>
</VTKFile>
