<?xml version="1.0"?>
<VTKFile type="UnstructuredGrid">
  <UnstructuredGrid>
  <Piece NumberOfPoints="13"  NumberOfCells="28">
    <Points>
      <DataArray type="Float64" NumberOfComponents="3" format="ascii">
0 0 0
2.99841 0.00331637 0
5.99668 0.0137961 0
8.99482 0.0306811 0
11.9901 0.0685455 0
14.985 0.108632 0
15.9782 0.617496 0
14.9766 1.10943 0
11.9823 1.06849 0
8.98837 1.0309 0
5.99215 1.01429 0
2.99607 1.00382 0
0 1 0
      </DataArray>
    </Points>
    <Cells>
      <DataArray type="Int32" Name="connectivity" format="ascii">
0 1
1 2
2 3
3 4
4 5
5 6
0 12
0 11
1 11
1 10
2 10
2 9
3 9
3 8
4 8
4 7
5 7
7 6
11 12
11 10
10 9
8 9
7 8
12 1
11 2
10 3
9 4
8 5
      </DataArray>
      <DataArray type="Int32" Name="offsets" format="ascii">
2
4
6
8
10
12
14
16
18
20
22
24
26
28
30
32
34
36
38
40
42
44
46
48
50
52
54
56
      </DataArray>
      <DataArray type="UInt8" Name="types" format="ascii">
4
4
4
4
4
4
4
4
4
4
4
4
4
4
4
4
4
4
4
4
4
4
4
4
4
4
4
4
      </DataArray>
    </Cells>
    <PointData>
      <DataArray type="Float64" NumberOfComponents="3" Name="Displacement" format="ascii">
0 0 0
-0.00159474 0.00331637 0
-0.00331555 0.0137961 0
-0.00518254 0.0306811 0
-0.00988797 0.0685455 0
-0.0150338 0.108632 0
-0.021842 0.117496 0
-0.0234492 0.109426 0
-0.0177098 0.0684904 0
-0.0116331 0.030899 0
-0.00784761 0.0142865 0
-0.00393219 0.00381621 0
0 0 0
      </DataArray> 
    </PointData>
    <CellData>
    </CellData>
  </Piece>
  </UnstructuredGrid>
</VTKFile>
