<?xml version="1.0"?>
<VTKFile type="UnstructuredGrid">
  <UnstructuredGrid>
  <Piece NumberOfPoints="13"  NumberOfCells="28">
    <Points>
      <DataArray type="Float64" NumberOfComponents="3" format="ascii">
0 0 0
2.97755 0.994557 0
-0.0343474 0.994298 0
-3.04537 0.98106 0
-6.06333 1.00724 0
-9.08054 1.02797 0
-10.0855 0.521547 0
-9.07241 0.031054 0
-6.05543 0.00742954 0
-3.03939 -0.0179503 0
-0.0307483 -0.00403546 0
2.97949 0.0115773 0
0 1 0
      </DataArray>
    </Points>
    <Cells>
      <DataArray type="Int32" Name="connectivity" format="ascii">
0 1
1 2
2 3
3 4
4 5
5 6
0 12
0 11
1 11
1 10
2 10
2 9
3 9
3 8
4 8
4 7
5 7
7 6
11 12
11 10
10 9
8 9
7 8
12 1
11 2
10 3
9 4
8 5
      </DataArray>
      <DataArray type="Int32" Name="offsets" format="ascii">
2
4
6
8
10
12
14
16
18
20
22
24
26
28
30
32
34
36
38
40
42
44
46
48
50
52
54
56
      </DataArray>
      <DataArray type="UInt8" Name="types" format="ascii">
4
4
4
4
4
4
4
4
4
4
4
4
4
4
4
4
4
4
4
4
4
4
4
4
4
4
4
4
      </DataArray>
    </Cells>
    <PointData>
      <DataArray type="Float64" NumberOfComponents="3" Name="Displacement" format="ascii">
0 0 0
-0.0224549 0.994557 0
-6.03435 0.994298 0
-12.0454 0.98106 0
-18.0633 1.00724 0
-24.0805 1.02797 0
-26.0855 0.0215471 0
-24.0724 -0.968946 0
-18.0554 -0.99257 0
-12.0394 -1.01795 0
-6.03075 -1.00404 0
-0.0205114 -0.988423 0
0 0 0
      </DataArray> 
    </PointData>
    <CellData>
    </CellData>
  </Piece>
  </UnstructuredGrid>
</VTKFile>
