<?xml version="1.0"?>
<VTKFile type="UnstructuredGrid">
  <UnstructuredGrid>
  <Piece NumberOfPoints="13"  NumberOfCells="28">
    <Points>
      <DataArray type="Float64" NumberOfComponents="3" format="ascii">
0 0 0
2.99884 0.00543922 0
5.99748 0.0221872 0
8.99583 0.0490044 0
11.9907 0.101682 0
14.9849 0.158267 0
15.9754 0.672073 0
14.9716 1.15908 0
11.9784 1.10156 0
8.9856 1.0492 0
5.99026 1.02271 0
2.99511 1.00598 0
0 1 0
      </DataArray>
    </Points>
    <Cells>
      <DataArray type="Int32" Name="connectivity" format="ascii">
0 1
1 2
2 3
3 4
4 5
5 6
0 12
0 11
1 11
1 10
2 10
2 9
3 9
3 8
4 8
4 7
5 7
7 6
11 12
11 10
10 9
8 9
7 8
12 1
11 2
10 3
9 4
8 5
      </DataArray>
      <DataArray type="Int32" Name="offsets" format="ascii">
2
4
6
8
10
12
14
16
18
20
22
24
26
28
30
32
34
36
38
40
42
44
46
48
50
52
54
56
      </DataArray>
      <DataArray type="UInt8" Name="types" format="ascii">
4
4
4
4
4
4
4
4
4
4
4
4
4
4
4
4
4
4
4
4
4
4
4
4
4
4
4
4
      </DataArray>
    </Cells>
    <PointData>
      <DataArray type="Float64" NumberOfComponents="3" Name="Displacement" format="ascii">
0 0 0
-0.00115567 0.00543922 0
-0.00251937 0.0221872 0
-0.00417237 0.0490044 0
-0.00927647 0.101682 0
-0.0150845 0.158267 0
-0.0246323 0.172073 0
-0.0283978 0.159075 0
-0.0216428 0.10156 0
-0.0144011 0.0492028 0
-0.00974256 0.0227075 0
-0.00489208 0.00598038 0
0 0 0
      </DataArray> 
    </PointData>
    <CellData>
    </CellData>
  </Piece>
  </UnstructuredGrid>
</VTKFile>
