<?xml version="1.0"?>
<VTKFile type="UnstructuredGrid">
  <UnstructuredGrid>
  <Piece NumberOfPoints="13"  NumberOfCells="28">
    <Points>
      <DataArray type="Float64" NumberOfComponents="3" format="ascii">
0 0 0
2.99941 0.00767761 0
5.99852 0.030997 0
8.99716 0.0681996 0
11.9918 0.135724 0
14.9854 0.208941 0
15.9731 0.727871 0
14.967 1.2097 0
11.9747 1.13551 0
8.98299 1.06835 0
5.98848 1.03152 0
2.99421 1.00824 0
0 1 0
      </DataArray>
    </Points>
    <Cells>
      <DataArray type="Int32" Name="connectivity" format="ascii">
0 1
1 2
2 3
3 4
4 5
5 6
0 12
0 11
1 11
1 10
2 10
2 9
3 9
3 8
4 8
4 7
5 7
7 6
11 12
11 10
10 9
8 9
7 8
12 1
11 2
10 3
9 4
8 5
      </DataArray>
      <DataArray type="Int32" Name="offsets" format="ascii">
2
4
6
8
10
12
14
16
18
20
22
24
26
28
30
32
34
36
38
40
42
44
46
48
50
52
54
56
      </DataArray>
      <DataArray type="UInt8" Name="types" format="ascii">
4
4
4
4
4
4
4
4
4
4
4
4
4
4
4
4
4
4
4
4
4
4
4
4
4
4
4
4
      </DataArray>
    </Cells>
    <PointData>
      <DataArray type="Float64" NumberOfComponents="3" Name="Displacement" format="ascii">
0 0 0
-0.000586181 0.00767761 0
-0.0014792 0.030997 0
-0.00283706 0.0681996 0
-0.00822482 0.135724 0
-0.014606 0.208941 0
-0.0269334 0.227871 0
-0.033025 0.209705 0
-0.0253269 0.13551 0
-0.0170094 0.0683518 0
-0.0115188 0.0315203 0
-0.0057889 0.00823915 0
0 0 0
      </DataArray> 
    </PointData>
    <CellData>
    </CellData>
  </Piece>
  </UnstructuredGrid>
</VTKFile>
