<?xml version="1.0"?>
<VTKFile type="UnstructuredGrid">
  <UnstructuredGrid>
  <Piece NumberOfPoints="13"  NumberOfCells="28">
    <Points>
      <DataArray type="Float64" NumberOfComponents="3" format="ascii">
0 0 0
3.12546 0.831501 0
5.43159 3.06655 0
6.65011 5.98453 0
6.71488 9.05923 0
6.32508 12.055 0
5.72869 13.0106 0
5.33143 11.9738 0
5.72552 9.08087 0
5.7026 6.2344 0
4.62521 3.61825 0
2.65473 1.66934 0
0 1 0
      </DataArray>
    </Points>
    <Cells>
      <DataArray type="Int32" Name="connectivity" format="ascii">
0 1
1 2
2 3
3 4
4 5
5 6
0 12
0 11
1 11
1 10
2 10
2 9
3 9
3 8
4 8
4 7
5 7
7 6
11 12
11 10
10 9
8 9
7 8
12 1
11 2
10 3
9 4
8 5
      </DataArray>
      <DataArray type="Int32" Name="offsets" format="ascii">
2
4
6
8
10
12
14
16
18
20
22
24
26
28
30
32
34
36
38
40
42
44
46
48
50
52
54
56
      </DataArray>
      <DataArray type="UInt8" Name="types" format="ascii">
4
4
4
4
4
4
4
4
4
4
4
4
4
4
4
4
4
4
4
4
4
4
4
4
4
4
4
4
      </DataArray>
    </Cells>
    <PointData>
      <DataArray type="Float64" NumberOfComponents="3" Name="Displacement" format="ascii">
0 0 0
0.125455 0.831501 0
-0.568409 3.06655 0
-2.34989 5.98453 0
-5.28512 9.05923 0
-8.67492 12.055 0
-10.2713 12.5106 0
-9.66857 10.9738 0
-6.27448 8.08087 0
-3.2974 5.2344 0
-1.37479 2.61825 0
-0.345267 0.66934 0
0 0 0
      </DataArray> 
    </PointData>
    <CellData>
    </CellData>
  </Piece>
  </UnstructuredGrid>
</VTKFile>
