<?xml version="1.0"?>
<VTKFile type="UnstructuredGrid">
  <UnstructuredGrid>
  <Piece NumberOfPoints="13"  NumberOfCells="28">
    <Points>
      <DataArray type="Float64" NumberOfComponents="3" format="ascii">
0 0 0
3.12545 0.826381 0
5.4416 3.04942 0
6.67979 5.95836 0
6.76999 9.03215 0
6.40586 12.031 0
5.81767 12.9916 0
5.41154 11.9583 0
5.78081 9.06191 0
5.73399 6.21521 0
4.63828 3.60596 0
2.65712 1.66618 0
0 1 0
      </DataArray>
    </Points>
    <Cells>
      <DataArray type="Int32" Name="connectivity" format="ascii">
0 1
1 2
2 3
3 4
4 5
5 6
0 12
0 11
1 11
1 10
2 10
2 9
3 9
3 8
4 8
4 7
5 7
7 6
11 12
11 10
10 9
8 9
7 8
12 1
11 2
10 3
9 4
8 5
      </DataArray>
      <DataArray type="Int32" Name="offsets" format="ascii">
2
4
6
8
10
12
14
16
18
20
22
24
26
28
30
32
34
36
38
40
42
44
46
48
50
52
54
56
      </DataArray>
      <DataArray type="UInt8" Name="types" format="ascii">
4
4
4
4
4
4
4
4
4
4
4
4
4
4
4
4
4
4
4
4
4
4
4
4
4
4
4
4
      </DataArray>
    </Cells>
    <PointData>
      <DataArray type="Float64" NumberOfComponents="3" Name="Displacement" format="ascii">
0 0 0
0.125448 0.826381 0
-0.558399 3.04942 0
-2.32021 5.95836 0
-5.23001 9.03215 0
-8.59414 12.031 0
-10.1823 12.4916 0
-9.58846 10.9583 0
-6.21919 8.06191 0
-3.26601 5.21521 0
-1.36172 2.60596 0
-0.342877 0.666177 0
0 0 0
      </DataArray> 
    </PointData>
    <CellData>
    </CellData>
  </Piece>
  </UnstructuredGrid>
</VTKFile>
