<?xml version="1.0"?>
<VTKFile type="UnstructuredGrid">
  <UnstructuredGrid>
  <Piece NumberOfPoints="13"  NumberOfCells="28">
    <Points>
      <DataArray type="Float64" NumberOfComponents="3" format="ascii">
0 0 0
3.10794 1.20651 0
4.299 4.27585 0
3.85744 7.43777 0
2.23747 10.0641 0
0.283613 12.3791 0
-0.739832 12.8578 0
-0.504124 11.7703 0
1.39422 9.54769 0
2.92291 7.15824 0
3.34027 4.38646 0
2.48333 1.83806 0
0 1 0
      </DataArray>
    </Points>
    <Cells>
      <DataArray type="Int32" Name="connectivity" format="ascii">
0 1
1 2
2 3
3 4
4 5
5 6
0 12
0 11
1 11
1 10
2 10
2 9
3 9
3 8
4 8
4 7
5 7
7 6
11 12
11 10
10 9
8 9
7 8
12 1
11 2
10 3
9 4
8 5
      </DataArray>
      <DataArray type="Int32" Name="offsets" format="ascii">
2
4
6
8
10
12
14
16
18
20
22
24
26
28
30
32
34
36
38
40
42
44
46
48
50
52
54
56
      </DataArray>
      <DataArray type="UInt8" Name="types" format="ascii">
4
4
4
4
4
4
4
4
4
4
4
4
4
4
4
4
4
4
4
4
4
4
4
4
4
4
4
4
      </DataArray>
    </Cells>
    <PointData>
      <DataArray type="Float64" NumberOfComponents="3" Name="Displacement" format="ascii">
0 0 0
0.10794 1.20651 0
-1.701 4.27585 0
-5.14256 7.43777 0
-9.76253 10.0641 0
-14.7164 12.3791 0
-16.7398 12.3578 0
-15.5041 10.7703 0
-10.6058 8.54769 0
-6.07709 6.15824 0
-2.65973 3.38646 0
-0.516674 0.838064 0
0 0 0
      </DataArray> 
    </PointData>
    <CellData>
    </CellData>
  </Piece>
  </UnstructuredGrid>
</VTKFile>
