<?xml version="1.0"?>
<VTKFile type="UnstructuredGrid">
  <UnstructuredGrid>
  <Piece NumberOfPoints="13"  NumberOfCells="28">
    <Points>
      <DataArray type="Float64" NumberOfComponents="3" format="ascii">
0 0 0
3.11613 1.08071 0
4.81124 3.87029 0
5.00072 7.05243 0
3.91536 9.93984 0
2.4274 12.5759 0
1.51356 13.2387 0
1.53807 12.1275 0
2.98879 9.59544 0
4.02989 6.96144 0
3.88834 4.15947 0
2.53795 1.80318 0
0 1 0
      </DataArray>
    </Points>
    <Cells>
      <DataArray type="Int32" Name="connectivity" format="ascii">
0 1
1 2
2 3
3 4
4 5
5 6
0 12
0 11
1 11
1 10
2 10
2 9
3 9
3 8
4 8
4 7
5 7
7 6
11 12
11 10
10 9
8 9
7 8
12 1
11 2
10 3
9 4
8 5
      </DataArray>
      <DataArray type="Int32" Name="offsets" format="ascii">
2
4
6
8
10
12
14
16
18
20
22
24
26
28
30
32
34
36
38
40
42
44
46
48
50
52
54
56
      </DataArray>
      <DataArray type="UInt8" Name="types" format="ascii">
4
4
4
4
4
4
4
4
4
4
4
4
4
4
4
4
4
4
4
4
4
4
4
4
4
4
4
4
      </DataArray>
    </Cells>
    <PointData>
      <DataArray type="Float64" NumberOfComponents="3" Name="Displacement" format="ascii">
0 0 0
0.11613 1.08071 0
-1.18876 3.87029 0
-3.99928 7.05243 0
-8.08464 9.93984 0
-12.5726 12.5759 0
-14.4864 12.7387 0
-13.4619 11.1275 0
-9.01121 8.59544 0
-4.97011 5.96144 0
-2.11166 3.15947 0
-0.462051 0.803176 0
0 0 0
      </DataArray> 
    </PointData>
    <CellData>
    </CellData>
  </Piece>
  </UnstructuredGrid>
</VTKFile>
