<?xml version="1.0"?>
<VTKFile type="UnstructuredGrid">
  <UnstructuredGrid>
  <Piece NumberOfPoints="13"  NumberOfCells="28">
    <Points>
      <DataArray type="Float64" NumberOfComponents="3" format="ascii">
0 0 0
3.1087 1.18877 0
4.39436 4.21481 0
4.05792 7.38961 0
2.51806 10.0638 0
0.631873 12.4339 0
-0.376944 12.9425 0
-0.173588 11.8487 0
1.65956 9.57342 0
3.1151 7.14051 0
3.43982 4.3568 0
2.49023 1.83713 0
0 1 0
      </DataArray>
    </Points>
    <Cells>
      <DataArray type="Int32" Name="connectivity" format="ascii">
0 1
1 2
2 3
3 4
4 5
5 6
0 12
0 11
1 11
1 10
2 10
2 9
3 9
3 8
4 8
4 7
5 7
7 6
11 12
11 10
10 9
8 9
7 8
12 1
11 2
10 3
9 4
8 5
      </DataArray>
      <DataArray type="Int32" Name="offsets" format="ascii">
2
4
6
8
10
12
14
16
18
20
22
24
26
28
30
32
34
36
38
40
42
44
46
48
50
52
54
56
      </DataArray>
      <DataArray type="UInt8" Name="types" format="ascii">
4
4
4
4
4
4
4
4
4
4
4
4
4
4
4
4
4
4
4
4
4
4
4
4
4
4
4
4
      </DataArray>
    </Cells>
    <PointData>
      <DataArray type="Float64" NumberOfComponents="3" Name="Displacement" format="ascii">
0 0 0
0.108696 1.18877 0
-1.60564 4.21481 0
-4.94208 7.38961 0
-9.48194 10.0638 0
-14.3681 12.4339 0
-16.3769 12.4425 0
-15.1736 10.8487 0
-10.3404 8.57342 0
-5.8849 6.14051 0
-2.56018 3.3568 0
-0.509766 0.837128 0
0 0 0
      </DataArray> 
    </PointData>
    <CellData>
    </CellData>
  </Piece>
  </UnstructuredGrid>
</VTKFile>
