<?xml version="1.0"?>
<VTKFile type="UnstructuredGrid">
  <UnstructuredGrid>
  <Piece NumberOfPoints="13"  NumberOfCells="28">
    <Points>
      <DataArray type="Float64" NumberOfComponents="3" format="ascii">
0 0 0
2.9985 0.00383918 0
5.99685 0.0158678 0
8.99503 0.0352106 0
11.9902 0.0768299 0
14.9849 0.121085 0
15.9774 0.631177 0
14.9752 1.12189 0
11.9813 1.07676 0
8.98764 1.03543 0
5.99165 1.01637 0
2.99582 1.00435 0
0 1 0
      </DataArray>
    </Points>
    <Cells>
      <DataArray type="Int32" Name="connectivity" format="ascii">
0 1
1 2
2 3
3 4
4 5
5 6
0 12
0 11
1 11
1 10
2 10
2 9
3 9
3 8
4 8
4 7
5 7
7 6
11 12
11 10
10 9
8 9
7 8
12 1
11 2
10 3
9 4
8 5
      </DataArray>
      <DataArray type="Int32" Name="offsets" format="ascii">
2
4
6
8
10
12
14
16
18
20
22
24
26
28
30
32
34
36
38
40
42
44
46
48
50
52
54
56
      </DataArray>
      <DataArray type="UInt8" Name="types" format="ascii">
4
4
4
4
4
4
4
4
4
4
4
4
4
4
4
4
4
4
4
4
4
4
4
4
4
4
4
4
      </DataArray>
    </Cells>
    <PointData>
      <DataArray type="Float64" NumberOfComponents="3" Name="Displacement" format="ascii">
0 0 0
-0.00150163 0.00383918 0
-0.00314846 0.0158678 0
-0.00497441 0.0352106 0
-0.0098005 0.0768299 0
-0.0151312 0.121085 0
-0.0226304 0.131177 0
-0.0247605 0.121889 0
-0.0187489 0.0767602 0
-0.0123607 0.0354265 0
-0.00834609 0.0163691 0
-0.00418479 0.00435229 0
0 0 0
      </DataArray> 
    </PointData>
    <CellData>
    </CellData>
  </Piece>
  </UnstructuredGrid>
</VTKFile>
