<?xml version="1.0"?>
<VTKFile type="UnstructuredGrid">
  <UnstructuredGrid>
  <Piece NumberOfPoints="13"  NumberOfCells="28">
    <Points>
      <DataArray type="Float64" NumberOfComponents="3" format="ascii">
0 0 0
3.06707 0.264427 0
6.04342 1.02408 0
8.86919 2.19454 0
11.4732 3.73636 0
13.9487 5.4353 0
14.5089 6.40371 0
13.4043 6.27388 0
10.9654 4.59414 0
8.43947 3.0939 0
5.72928 1.9711 0
2.90113 1.24726 0
0 1 0
      </DataArray>
    </Points>
    <Cells>
      <DataArray type="Int32" Name="connectivity" format="ascii">
0 1
1 2
2 3
3 4
4 5
5 6
0 12
0 11
1 11
1 10
2 10
2 9
3 9
3 8
4 8
4 7
5 7
7 6
11 12
11 10
10 9
8 9
7 8
12 1
11 2
10 3
9 4
8 5
      </DataArray>
      <DataArray type="Int32" Name="offsets" format="ascii">
2
4
6
8
10
12
14
16
18
20
22
24
26
28
30
32
34
36
38
40
42
44
46
48
50
52
54
56
      </DataArray>
      <DataArray type="UInt8" Name="types" format="ascii">
4
4
4
4
4
4
4
4
4
4
4
4
4
4
4
4
4
4
4
4
4
4
4
4
4
4
4
4
      </DataArray>
    </Cells>
    <PointData>
      <DataArray type="Float64" NumberOfComponents="3" Name="Displacement" format="ascii">
0 0 0
0.0670699 0.264427 0
0.0434206 1.02408 0
-0.130807 2.19454 0
-0.526833 3.73636 0
-1.05134 5.4353 0
-1.49105 5.90371 0
-1.59567 5.27388 0
-1.03458 3.59414 0
-0.56053 2.0939 0
-0.270716 0.9711 0
-0.0988732 0.247262 0
0 0 0
      </DataArray> 
    </PointData>
    <CellData>
    </CellData>
  </Piece>
  </UnstructuredGrid>
</VTKFile>
