<?xml version="1.0"?>
<VTKFile type="UnstructuredGrid">
  <UnstructuredGrid>
  <Piece NumberOfPoints="30"  NumberOfCells="85">
    <Points>
      <DataArray type="Float64" NumberOfComponents="3" format="ascii">
0 0 0
4 0 0
8 0 0
12 0 0
16 0 0
15.9985 3.00009 -2.52425e-06
12.0004 2.99435 -0.000423022
8 2.99586 0.000105853
3.99959 2.99435 -0.000423022
0.00147514 3.00009 -2.52425e-06
0.00257819 -0.0243278 8
4.00145 0.000486019 8
8 0.00932093 8
11.9985 0.000486019 8
15.9974 -0.0243278 8
16.0107 2.97588 8
12.0064 2.99957 8
8 3.00769 8
3.99355 2.99957 8
-0.0106775 2.97588 8
0 0 16
4 0 16
8 0 16
12 0 16
16 0 16
15.9985 3.00009 16
12.0004 2.99435 16.0004
8 2.99586 15.9999
3.99959 2.99435 16.0004
0.00147514 3.00009 16
      </DataArray>
    </Points>
    <Cells>
      <DataArray type="Int32" Name="connectivity" format="ascii">
0 1
1 2
2 3
3 4
4 5
5 6
6 7
7 8
8 9
9 0
8 1
7 2
6 3
10 11
11 12
12 13
13 14
14 15
15 16
16 17
17 18
18 19
19 10
18 11
17 12
16 13
20 21
21 22
22 23
23 24
24 25
25 26
26 27
27 28
28 29
20 29
28 21
22 27
23 26
20 10
10 0
29 19
19 9
21 11
28 18
11 1
18 8
22 12
27 17
12 2
17 7
23 13
26 16
13 3
16 6
24 14
25 15
15 5
14 4
25 23
29 21
19 11
9 1
15 13
5 3
8 2
6 2
18 12
16 12
28 22
26 22
19 20
19 0
21 18
18 1
22 17
17 2
23 16
16 3
15 24
15 4
20 18
18 0
24 16
16 4
      </DataArray>
      <DataArray type="Int32" Name="offsets" format="ascii">
2
4
6
8
10
12
14
16
18
20
22
24
26
28
30
32
34
36
38
40
42
44
46
48
50
52
54
56
58
60
62
64
66
68
70
72
74
76
78
80
82
84
86
88
90
92
94
96
98
100
102
104
106
108
110
112
114
116
118
120
122
124
126
128
130
132
134
136
138
140
142
144
146
148
150
152
154
156
158
160
162
164
166
168
170
      </DataArray>
      <DataArray type="UInt8" Name="types" format="ascii">
4
4
4
4
4
4
4
4
4
4
4
4
4
4
4
4
4
4
4
4
4
4
4
4
4
4
4
4
4
4
4
4
4
4
4
4
4
4
4
4
4
4
4
4
4
4
4
4
4
4
4
4
4
4
4
4
4
4
4
4
4
4
4
4
4
4
4
4
4
4
4
4
4
4
4
4
4
4
4
4
4
4
4
4
4
      </DataArray>
    </Cells>
    <PointData>
      <DataArray type="Float64" NumberOfComponents="3" Name="Displacement" format="ascii">
0 0 0
0 0 0
0 0 0
0 0 0
0 0 0
-0.00147514 9.00046e-05 -2.52425e-06
0.000408444 -0.0056536 -0.000423022
-2.22045e-14 -0.004136 0.000105853
-0.000408444 -0.0056536 -0.000423022
0.00147514 9.00046e-05 -2.52425e-06
0.00257819 -0.0243278 0
0.00145051 0.000486019 0
8.34888e-14 0.00932093 0
-0.00145051 0.000486019 0
-0.00257819 -0.0243278 0
0.0106775 -0.0241197 1.06581e-14
0.00644655 -0.000434129 -3.55271e-15
5.32907e-15 0.00769332 -3.37508e-14
-0.00644655 -0.000434129 1.95399e-14
-0.0106775 -0.0241197 -8.88178e-15
0 0 0
0 0 0
0 0 0
0 0 0
0 0 0
-0.00147514 9.00046e-05 2.52425e-06
0.000408444 -0.0056536 0.000423022
-2.75335e-14 -0.004136 -0.000105853
-0.000408444 -0.0056536 0.000423022
0.00147514 9.00046e-05 2.52425e-06
      </DataArray> 
      <DataArray type="Float64" NumberOfComponents="3" Name="Velocity" format="ascii">
0 0 0
0 0 0
0 0 0
0 0 0
0 0 0
-0.00240563 -0.00350855 -5.94179e-05
-0.00245156 -1.31035e-05 -3.13888e-05
9.78656e-15 0.00579559 5.15347e-05
0.00245156 -1.31035e-05 -3.13888e-05
0.00240563 -0.00350855 -5.94179e-05
0.00156757 -0.00410971 0
0.000349068 -0.00246442 0
-8.89688e-15 -0.0060345 0
-0.000349068 -0.00246442 0
-0.00156757 -0.00410971 0
-0.000611319 -0.00281575 -7.1175e-15
-0.000274229 -0.00274817 -1.24556e-14
1.06763e-14 -0.0034225 -1.24556e-14
0.000274229 -0.00274817 7.1175e-15
0.000611319 -0.00281575 -5.33813e-15
0 0 0
0 0 0
0 0 0
0 0 0
0 0 0
-0.00240563 -0.00350855 5.94179e-05
-0.00245156 -1.31035e-05 3.13888e-05
-3.11391e-14 0.00579559 -5.15347e-05
0.00245156 -1.31035e-05 3.13888e-05
0.00240563 -0.00350855 5.94179e-05
      </DataArray> 
      <DataArray type="Float64" NumberOfComponents="3" Name="Acceleration" format="ascii">
0 0 0
0 0 0
0 0 0
0 0 0
0 0 0
0.00194889 -0.00563545 1.82928e-05
-0.000203603 0.000653074 0.000132566
-7.99361e-15 -0.00192128 -3.82626e-05
0.000203603 0.000653074 0.000132566
-0.00194889 -0.00563545 1.82928e-05
-0.000685868 0.000202246 0
0.00131909 -0.00167937 0
-8.88178e-15 -0.00114111 0
-0.00131909 -0.00167937 0
0.000685868 0.000202246 0
-0.000365573 -0.00103304 7.10543e-15
-0.000607515 -0.00123332 -2.66635e-28
3.01981e-14 -0.00227468 5.32907e-15
0.000607515 -0.00123332 1.77636e-15
0.000365573 -0.00103304 8.88178e-15
0 0 0
0 0 0
0 0 0
0 0 0
0 0 0
0.00194889 -0.00563545 -1.82928e-05
-0.000203603 0.000653074 -0.000132566
-2.66454e-15 -0.00192128 3.82626e-05
0.000203603 0.000653074 -0.000132566
-0.00194889 -0.00563545 -1.82928e-05
      </DataArray> 
    </PointData>
    <CellData>
    </CellData>
  </Piece>
  </UnstructuredGrid>
</VTKFile>
