<?xml version="1.0"?>
<VTKFile type="UnstructuredGrid">
  <UnstructuredGrid>
  <Piece NumberOfPoints="30"  NumberOfCells="85">
    <Points>
      <DataArray type="Float64" NumberOfComponents="3" format="ascii">
0 0 0
4 0 0
8 0 0
12 0 0
16 0 0
16.0078 2.99486 0.000116535
12.0054 2.99494 0.000402883
8 2.99962 0.000318516
3.99458 2.99494 0.000402883
-0.00782271 2.99486 0.000116535
0.0019851 -0.0632688 8
4.00221 -0.0590539 8
8 -0.0618328 8
11.9978 -0.0590539 8
15.998 -0.0632688 8
15.998 2.93502 8
11.9966 2.94113 8
8 2.93689 8
4.00341 2.94113 8
0.00197779 2.93502 8
0 0 16
4 0 16
8 0 16
12 0 16
16 0 16
16.0078 2.99486 15.9999
12.0054 2.99494 15.9996
8 2.99962 15.9997
3.99458 2.99494 15.9996
-0.00782271 2.99486 15.9999
      </DataArray>
    </Points>
    <Cells>
      <DataArray type="Int32" Name="connectivity" format="ascii">
0 1
1 2
2 3
3 4
4 5
5 6
6 7
7 8
8 9
9 0
8 1
7 2
6 3
10 11
11 12
12 13
13 14
14 15
15 16
16 17
17 18
18 19
19 10
18 11
17 12
16 13
20 21
21 22
22 23
23 24
24 25
25 26
26 27
27 28
28 29
20 29
28 21
22 27
23 26
20 10
10 0
29 19
19 9
21 11
28 18
11 1
18 8
22 12
27 17
12 2
17 7
23 13
26 16
13 3
16 6
24 14
25 15
15 5
14 4
25 23
29 21
19 11
9 1
15 13
5 3
8 2
6 2
18 12
16 12
28 22
26 22
19 20
19 0
21 18
18 1
22 17
17 2
23 16
16 3
15 24
15 4
20 18
18 0
24 16
16 4
      </DataArray>
      <DataArray type="Int32" Name="offsets" format="ascii">
2
4
6
8
10
12
14
16
18
20
22
24
26
28
30
32
34
36
38
40
42
44
46
48
50
52
54
56
58
60
62
64
66
68
70
72
74
76
78
80
82
84
86
88
90
92
94
96
98
100
102
104
106
108
110
112
114
116
118
120
122
124
126
128
130
132
134
136
138
140
142
144
146
148
150
152
154
156
158
160
162
164
166
168
170
      </DataArray>
      <DataArray type="UInt8" Name="types" format="ascii">
4
4
4
4
4
4
4
4
4
4
4
4
4
4
4
4
4
4
4
4
4
4
4
4
4
4
4
4
4
4
4
4
4
4
4
4
4
4
4
4
4
4
4
4
4
4
4
4
4
4
4
4
4
4
4
4
4
4
4
4
4
4
4
4
4
4
4
4
4
4
4
4
4
4
4
4
4
4
4
4
4
4
4
4
4
      </DataArray>
    </Cells>
    <PointData>
      <DataArray type="Float64" NumberOfComponents="3" Name="Displacement" format="ascii">
0 0 0
0 0 0
0 0 0
0 0 0
0 0 0
0.00782271 -0.00514074 0.000116535
0.005419 -0.00505832 0.000402883
8.88178e-15 -0.000376 0.000318516
-0.005419 -0.00505832 0.000402883
-0.00782271 -0.00514074 0.000116535
0.0019851 -0.0632688 0
0.00221044 -0.0590539 0
2.4869e-14 -0.0618328 0
-0.00221044 -0.0590539 0
-0.0019851 -0.0632688 0
-0.00197779 -0.0649812 5.32907e-15
-0.00341204 -0.058872 -3.55271e-15
1.24345e-14 -0.0631119 -2.75335e-14
0.00341204 -0.058872 1.77636e-14
0.00197779 -0.0649812 3.55271e-15
0 0 0
0 0 0
0 0 0
0 0 0
0 0 0
0.00782271 -0.00514074 -0.000116535
0.005419 -0.00505832 -0.000402883
-4.9738e-14 -0.000376 -0.000318516
-0.005419 -0.00505832 -0.000402883
-0.00782271 -0.00514074 -0.000116535
      </DataArray> 
      <DataArray type="Float64" NumberOfComponents="3" Name="Velocity" format="ascii">
0 0 0
0 0 0
0 0 0
0 0 0
0 0 0
0.000347103 0.0039947 -9.07631e-05
0.000364255 0.0040831 -0.000223423
5.33813e-15 0.00209675 -8.104e-05
-0.000364255 0.0040831 -0.000223423
-0.000347103 0.0039947 -9.07631e-05
-1.96024e-05 0.00905513 0
0.000477275 0.0085012 0
-1.24556e-14 0.0075237 0
-0.000477275 0.0085012 0
1.96024e-05 0.00905513 0
-0.000240135 0.00928725 -1.06763e-14
0.000295036 0.00883692 -7.1175e-15
8.89688e-15 0.0093198 4.44844e-15
-0.000295036 0.00883692 1.06763e-14
0.000240135 0.00928725 -1.24556e-14
0 0 0
0 0 0
0 0 0
0 0 0
0 0 0
0.000347103 0.0039947 9.07631e-05
0.000364255 0.0040831 0.000223423
7.1175e-15 0.00209675 8.104e-05
-0.000364255 0.0040831 0.000223423
-0.000347103 0.0039947 9.07631e-05
      </DataArray> 
      <DataArray type="Float64" NumberOfComponents="3" Name="Acceleration" format="ascii">
0 0 0
0 0 0
0 0 0
0 0 0
0 0 0
-0.00332169 -0.00197904 4.27607e-05
-0.00240711 -0.00114646 -6.7477e-05
-3.73035e-14 -0.00587977 -2.84037e-05
0.00240711 -0.00114646 -6.7477e-05
0.00332169 -0.00197904 4.27607e-05
0.000148387 -0.0014863 0
-0.000131411 -0.000640786 0
-3.55271e-15 -0.001062 0
0.000131411 -0.000640786 0
-0.000148387 -0.0014863 0
0.000236341 0.00107119 -8.88178e-15
-0.000155512 0.000748887 -3.55271e-15
1.77636e-15 0.000278078 8.88178e-16
0.000155512 0.000748887 -1.92482e-28
-0.000236341 0.00107119 -7.10543e-15
0 0 0
0 0 0
0 0 0
0 0 0
0 0 0
-0.00332169 -0.00197904 -4.27607e-05
-0.00240711 -0.00114646 6.7477e-05
3.55271e-15 -0.00587977 2.84037e-05
0.00240711 -0.00114646 6.7477e-05
0.00332169 -0.00197904 -4.27607e-05
      </DataArray> 
    </PointData>
    <CellData>
    </CellData>
  </Piece>
  </UnstructuredGrid>
</VTKFile>
