<?xml version="1.0"?>
<VTKFile type="UnstructuredGrid">
  <UnstructuredGrid>
  <Piece NumberOfPoints="30"  NumberOfCells="85">
    <Points>
      <DataArray type="Float64" NumberOfComponents="3" format="ascii">
0 0 0
4 0 0
8 0 0
12 0 0
16 0 0
15.9978 2.9951 -2.0625e-05
11.9984 2.99631 0.00118845
8 2.98941 0.000306633
4.00159 2.99631 0.00118845
0.00222795 2.9951 -2.0625e-05
0.000319508 -0.0274234 8
3.99932 -0.032609 8
8 -0.0380447 8
12.0007 -0.032609 8
15.9997 -0.0274234 8
15.9964 2.97181 8
11.9969 2.96773 8
8 2.96296 8
4.0031 2.96773 8
0.00357065 2.97181 8
0 0 16
4 0 16
8 0 16
12 0 16
16 0 16
15.9978 2.9951 16
11.9984 2.99631 15.9988
8 2.98941 15.9997
4.00159 2.99631 15.9988
0.00222795 2.9951 16
      </DataArray>
    </Points>
    <Cells>
      <DataArray type="Int32" Name="connectivity" format="ascii">
0 1
1 2
2 3
3 4
4 5
5 6
6 7
7 8
8 9
9 0
8 1
7 2
6 3
10 11
11 12
12 13
13 14
14 15
15 16
16 17
17 18
18 19
19 10
18 11
17 12
16 13
20 21
21 22
22 23
23 24
24 25
25 26
26 27
27 28
28 29
20 29
28 21
22 27
23 26
20 10
10 0
29 19
19 9
21 11
28 18
11 1
18 8
22 12
27 17
12 2
17 7
23 13
26 16
13 3
16 6
24 14
25 15
15 5
14 4
25 23
29 21
19 11
9 1
15 13
5 3
8 2
6 2
18 12
16 12
28 22
26 22
19 20
19 0
21 18
18 1
22 17
17 2
23 16
16 3
15 24
15 4
20 18
18 0
24 16
16 4
      </DataArray>
      <DataArray type="Int32" Name="offsets" format="ascii">
2
4
6
8
10
12
14
16
18
20
22
24
26
28
30
32
34
36
38
40
42
44
46
48
50
52
54
56
58
60
62
64
66
68
70
72
74
76
78
80
82
84
86
88
90
92
94
96
98
100
102
104
106
108
110
112
114
116
118
120
122
124
126
128
130
132
134
136
138
140
142
144
146
148
150
152
154
156
158
160
162
164
166
168
170
      </DataArray>
      <DataArray type="UInt8" Name="types" format="ascii">
4
4
4
4
4
4
4
4
4
4
4
4
4
4
4
4
4
4
4
4
4
4
4
4
4
4
4
4
4
4
4
4
4
4
4
4
4
4
4
4
4
4
4
4
4
4
4
4
4
4
4
4
4
4
4
4
4
4
4
4
4
4
4
4
4
4
4
4
4
4
4
4
4
4
4
4
4
4
4
4
4
4
4
4
4
      </DataArray>
    </Cells>
    <PointData>
      <DataArray type="Float64" NumberOfComponents="3" Name="Displacement" format="ascii">
0 0 0
0 0 0
0 0 0
0 0 0
0 0 0
-0.00222795 -0.00490243 -2.0625e-05
-0.00158775 -0.00368767 0.00118845
3.37508e-14 -0.0105892 0.000306633
0.00158775 -0.00368767 0.00118845
0.00222795 -0.00490243 -2.0625e-05
0.000319508 -0.0274234 0
-0.000684396 -0.032609 0
1.72307e-13 -0.0380447 0
0.000684396 -0.032609 0
-0.000319508 -0.0274234 0
-0.00357065 -0.0281913 -4.52971e-14
-0.00310028 -0.0322702 -1.23457e-13
1.7053e-13 -0.0370424 3.55271e-15
0.00310028 -0.0322702 -2.84217e-14
0.00357065 -0.0281913 -2.30926e-14
0 0 0
0 0 0
0 0 0
0 0 0
0 0 0
-0.00222795 -0.00490243 2.0625e-05
-0.00158775 -0.00368767 -0.00118845
6.92779e-14 -0.0105892 -0.000306633
0.00158775 -0.00368767 -0.00118845
0.00222795 -0.00490243 2.0625e-05
      </DataArray> 
      <DataArray type="Float64" NumberOfComponents="3" Name="Velocity" format="ascii">
0 0 0
0 0 0
0 0 0
0 0 0
0 0 0
-0.00213265 -0.00404908 -7.82523e-06
-0.00147981 -0.00392952 -0.000358295
-3.73669e-14 -0.00387567 -0.000107146
0.00147981 -0.00392952 -0.000358295
0.00213265 -0.00404908 -7.82523e-06
0.000129496 0.00844629 0
0.00162862 0.00842858 0
-3.38081e-14 0.00845085 0
-0.00162862 0.00842858 0
-0.000129496 0.00844629 0
0.000375108 0.00685721 4.18153e-14
0.000917826 0.0076617 2.13525e-14
3.20288e-14 0.00888736 5.33813e-15
-0.000917826 0.0076617 1.4235e-14
-0.000375108 0.00685721 3.55875e-15
0 0 0
0 0 0
0 0 0
0 0 0
0 0 0
-0.00213265 -0.00404908 7.82523e-06
-0.00147981 -0.00392952 0.000358295
-2.13525e-14 -0.00387567 0.000107146
0.00147981 -0.00392952 0.000358295
0.00213265 -0.00404908 7.82523e-06
      </DataArray> 
      <DataArray type="Float64" NumberOfComponents="3" Name="Acceleration" format="ascii">
0 0 0
0 0 0
0 0 0
0 0 0
0 0 0
0.0027409 0.000633763 2.02981e-05
0.00197848 -0.000847339 -0.000353342
-2.66454e-14 0.00481793 -0.000103182
-0.00197848 -0.000847339 -0.000353342
-0.0027409 0.000633763 2.02981e-05
-0.000653005 -0.000665032 0
0.00101638 4.34547e-05 0
-8.88178e-15 0.000928593 0
-0.00101638 4.34547e-05 0
0.000653005 -0.000665032 0
0.00031356 -0.00111314 -2.66454e-15
-0.000267013 -0.00062485 4.44089e-14
-3.90799e-14 -0.00172996 1.77636e-14
0.000267013 -0.00062485 -1.06581e-14
-0.00031356 -0.00111314 2.30926e-14
0 0 0
0 0 0
0 0 0
0 0 0
0 0 0
0.0027409 0.000633763 -2.02981e-05
0.00197848 -0.000847339 0.000353342
-8.88178e-15 0.00481793 0.000103182
-0.00197848 -0.000847339 0.000353342
-0.0027409 0.000633763 -2.02981e-05
      </DataArray> 
    </PointData>
    <CellData>
    </CellData>
  </Piece>
  </UnstructuredGrid>
</VTKFile>
