<?xml version="1.0"?>
<VTKFile type="UnstructuredGrid">
  <UnstructuredGrid>
  <Piece NumberOfPoints="30"  NumberOfCells="85">
    <Points>
      <DataArray type="Float64" NumberOfComponents="3" format="ascii">
0 0 0
4 0 0
8 0 0
12 0 0
16 0 0
15.9969 2.99289 -2.45359e-06
11.9982 2.99218 0.000713289
8 2.9887 4.5841e-05
4.00177 2.99218 0.000713289
0.00309528 2.99289 -2.45359e-06
0.00170856 -0.0319504 8
4.00136 -0.0154035 8
8 -0.00922291 8
11.9986 -0.0154035 8
15.9983 -0.0319504 8
16.0061 2.96822 8
12.003 2.98383 8
8 2.98726 8
3.99702 2.98383 8
-0.00612594 2.96822 8
0 0 16
4 0 16
8 0 16
12 0 16
16 0 16
15.9969 2.99289 16
11.9982 2.99218 15.9993
8 2.9887 16
4.00177 2.99218 15.9993
0.00309528 2.99289 16
      </DataArray>
    </Points>
    <Cells>
      <DataArray type="Int32" Name="connectivity" format="ascii">
0 1
1 2
2 3
3 4
4 5
5 6
6 7
7 8
8 9
9 0
8 1
7 2
6 3
10 11
11 12
12 13
13 14
14 15
15 16
16 17
17 18
18 19
19 10
18 11
17 12
16 13
20 21
21 22
22 23
23 24
24 25
25 26
26 27
27 28
28 29
20 29
28 21
22 27
23 26
20 10
10 0
29 19
19 9
21 11
28 18
11 1
18 8
22 12
27 17
12 2
17 7
23 13
26 16
13 3
16 6
24 14
25 15
15 5
14 4
25 23
29 21
19 11
9 1
15 13
5 3
8 2
6 2
18 12
16 12
28 22
26 22
19 20
19 0
21 18
18 1
22 17
17 2
23 16
16 3
15 24
15 4
20 18
18 0
24 16
16 4
      </DataArray>
      <DataArray type="Int32" Name="offsets" format="ascii">
2
4
6
8
10
12
14
16
18
20
22
24
26
28
30
32
34
36
38
40
42
44
46
48
50
52
54
56
58
60
62
64
66
68
70
72
74
76
78
80
82
84
86
88
90
92
94
96
98
100
102
104
106
108
110
112
114
116
118
120
122
124
126
128
130
132
134
136
138
140
142
144
146
148
150
152
154
156
158
160
162
164
166
168
170
      </DataArray>
      <DataArray type="UInt8" Name="types" format="ascii">
4
4
4
4
4
4
4
4
4
4
4
4
4
4
4
4
4
4
4
4
4
4
4
4
4
4
4
4
4
4
4
4
4
4
4
4
4
4
4
4
4
4
4
4
4
4
4
4
4
4
4
4
4
4
4
4
4
4
4
4
4
4
4
4
4
4
4
4
4
4
4
4
4
4
4
4
4
4
4
4
4
4
4
4
4
      </DataArray>
    </Cells>
    <PointData>
      <DataArray type="Float64" NumberOfComponents="3" Name="Displacement" format="ascii">
0 0 0
0 0 0
0 0 0
0 0 0
0 0 0
-0.00309528 -0.00711304 -2.45359e-06
-0.0017732 -0.00782259 0.000713289
0 -0.0113024 4.5841e-05
0.0017732 -0.00782259 0.000713289
0.00309528 -0.00711304 -2.45359e-06
0.00170856 -0.0319504 0
0.00136313 -0.0154035 0
-3.01981e-14 -0.00922291 0
-0.00136313 -0.0154035 0
-0.00170856 -0.0319504 0
0.00612594 -0.0317765 1.06581e-14
0.00298431 -0.0161737 -2.93099e-14
-4.17444e-14 -0.0127414 3.55271e-14
-0.00298431 -0.0161737 -8.88178e-15
-0.00612594 -0.0317765 3.55271e-15
0 0 0
0 0 0
0 0 0
0 0 0
0 0 0
-0.00309528 -0.00711304 2.45359e-06
-0.0017732 -0.00782259 -0.000713289
-4.17444e-14 -0.0113024 -4.5841e-05
0.0017732 -0.00782259 -0.000713289
0.00309528 -0.00711304 2.45359e-06
      </DataArray> 
      <DataArray type="Float64" NumberOfComponents="3" Name="Velocity" format="ascii">
0 0 0
0 0 0
0 0 0
0 0 0
0 0 0
0.00137901 -0.0031347 4.25721e-05
0.000503347 -0.000993864 -0.000570041
-5.33813e-15 -0.00277393 -0.000197306
-0.000503347 -0.000993864 -0.000570041
-0.00137901 -0.0031347 4.25721e-05
-0.00213764 -0.00655944 0
0.000526489 -0.00637977 0
3.55875e-15 -0.0052838 0
-0.000526489 -0.00637977 0
0.00213764 -0.00655944 0
0.000314111 -0.00739282 4.2705e-14
-0.000323837 -0.0067359 -6.31678e-14
8.62997e-14 -0.00645719 -2.13525e-14
0.000323837 -0.0067359 5.33813e-15
-0.000314111 -0.00739282 -1.4235e-14
0 0 0
0 0 0
0 0 0
0 0 0
0 0 0
0.00137901 -0.0031347 -4.25721e-05
0.000503347 -0.000993864 0.000570041
-2.75803e-14 -0.00277393 0.000197306
-0.000503347 -0.000993864 0.000570041
-0.00137901 -0.0031347 -4.25721e-05
      </DataArray> 
      <DataArray type="Float64" NumberOfComponents="3" Name="Acceleration" format="ascii">
0 0 0
0 0 0
0 0 0
0 0 0
0 0 0
0.00421542 0.00355385 1.69846e-05
0.00271791 0.00336049 -0.000218753
-3.90799e-14 0.005562 -1.83291e-05
-0.00271791 0.00336049 -0.000218753
-0.00421542 0.00355385 1.69846e-05
-0.000203362 0.000159481 0
0.00065233 -0.00132997 0
-1.24345e-14 -0.00258695 0
-0.00065233 -0.00132997 0
0.000203362 0.000159481 0
-0.000243653 -0.000913554 1.06581e-14
-0.000213797 -0.000553319 -7.99361e-15
-6.21725e-15 -0.000611414 -2.84305e-27
0.000213797 -0.000553319 1.77636e-15
0.000243653 -0.000913554 1.42109e-14
0 0 0
0 0 0
0 0 0
0 0 0
0 0 0
0.00421542 0.00355385 -1.69846e-05
0.00271791 0.00336049 0.000218753
-6.21725e-15 0.005562 1.83291e-05
-0.00271791 0.00336049 0.000218753
-0.00421542 0.00355385 -1.69846e-05
      </DataArray> 
    </PointData>
    <CellData>
    </CellData>
  </Piece>
  </UnstructuredGrid>
</VTKFile>
