<?xml version="1.0"?>
<VTKFile type="UnstructuredGrid">
  <UnstructuredGrid>
  <Piece NumberOfPoints="30"  NumberOfCells="85">
    <Points>
      <DataArray type="Float64" NumberOfComponents="3" format="ascii">
0 0 0
4 0 0
8 0 0
12 0 0
16 0 0
16.0011 2.99052 5.74111e-05
12.0005 2.99209 -0.000604811
8 2.9972 0.000295128
3.99955 2.99209 -0.000604811
-0.00105731 2.99052 5.74111e-05
-0.000197639 -0.0102892 8
4.00036 0.00111613 8
8 0.005351 8
11.9996 0.00111613 8
16.0002 -0.0102892 8
16.0056 2.99021 8
12.003 3.00103 8
8 3.00376 8
3.99696 3.00103 8
-0.00560867 2.99021 8
0 0 16
4 0 16
8 0 16
12 0 16
16 0 16
16.0011 2.99052 15.9999
12.0005 2.99209 16.0006
8 2.9972 15.9997
3.99955 2.99209 16.0006
-0.00105731 2.99052 15.9999
      </DataArray>
    </Points>
    <Cells>
      <DataArray type="Int32" Name="connectivity" format="ascii">
0 1
1 2
2 3
3 4
4 5
5 6
6 7
7 8
8 9
9 0
8 1
7 2
6 3
10 11
11 12
12 13
13 14
14 15
15 16
16 17
17 18
18 19
19 10
18 11
17 12
16 13
20 21
21 22
22 23
23 24
24 25
25 26
26 27
27 28
28 29
20 29
28 21
22 27
23 26
20 10
10 0
29 19
19 9
21 11
28 18
11 1
18 8
22 12
27 17
12 2
17 7
23 13
26 16
13 3
16 6
24 14
25 15
15 5
14 4
25 23
29 21
19 11
9 1
15 13
5 3
8 2
6 2
18 12
16 12
28 22
26 22
19 20
19 0
21 18
18 1
22 17
17 2
23 16
16 3
15 24
15 4
20 18
18 0
24 16
16 4
      </DataArray>
      <DataArray type="Int32" Name="offsets" format="ascii">
2
4
6
8
10
12
14
16
18
20
22
24
26
28
30
32
34
36
38
40
42
44
46
48
50
52
54
56
58
60
62
64
66
68
70
72
74
76
78
80
82
84
86
88
90
92
94
96
98
100
102
104
106
108
110
112
114
116
118
120
122
124
126
128
130
132
134
136
138
140
142
144
146
148
150
152
154
156
158
160
162
164
166
168
170
      </DataArray>
      <DataArray type="UInt8" Name="types" format="ascii">
4
4
4
4
4
4
4
4
4
4
4
4
4
4
4
4
4
4
4
4
4
4
4
4
4
4
4
4
4
4
4
4
4
4
4
4
4
4
4
4
4
4
4
4
4
4
4
4
4
4
4
4
4
4
4
4
4
4
4
4
4
4
4
4
4
4
4
4
4
4
4
4
4
4
4
4
4
4
4
4
4
4
4
4
4
      </DataArray>
    </Cells>
    <PointData>
      <DataArray type="Float64" NumberOfComponents="3" Name="Displacement" format="ascii">
0 0 0
0 0 0
0 0 0
0 0 0
0 0 0
0.00105731 -0.00948064 5.74111e-05
0.000453122 -0.00791217 -0.000604811
5.32907e-15 -0.00280125 0.000295128
-0.000453122 -0.00791217 -0.000604811
-0.00105731 -0.00948064 5.74111e-05
-0.000197639 -0.0102892 0
0.000362229 0.00111613 0
-8.43769e-14 0.005351 0
-0.000362229 0.00111613 0
0.000197639 -0.0102892 0
0.00560867 -0.00978793 7.10543e-15
0.00303946 0.00103099 -3.10862e-14
-4.70735e-14 0.00375998 2.4869e-14
-0.00303946 0.00103099 -3.64153e-14
-0.00560867 -0.00978793 2.13163e-14
0 0 0
0 0 0
0 0 0
0 0 0
0 0 0
0.00105731 -0.00948064 -5.74111e-05
0.000453122 -0.00791217 0.000604811
-4.44089e-15 -0.00280125 -0.000295128
-0.000453122 -0.00791217 0.000604811
-0.00105731 -0.00948064 -5.74111e-05
      </DataArray> 
      <DataArray type="Float64" NumberOfComponents="3" Name="Velocity" format="ascii">
0 0 0
0 0 0
0 0 0
0 0 0
0 0 0
0.00230042 -0.00170744 7.76776e-06
0.00212778 -0.00363718 -0.000475996
-1.77938e-15 0.00511817 -8.0507e-05
-0.00212778 -0.00363718 -0.000475996
-0.00230042 -0.00170744 7.76776e-06
0.0011643 0.00288432 0
0.000124898 0.00119318 0
-5.33813e-15 -0.00155721 0
-0.000124898 0.00119318 0
-0.0011643 0.00288432 0
-0.00128282 0.00305253 -3.55875e-15
-0.00075089 0.00193679 1.51247e-14
-4.89328e-14 0.000373993 2.31319e-14
0.00075089 0.00193679 2.75803e-14
0.00128282 0.00305253 -2.66906e-14
0 0 0
0 0 0
0 0 0
0 0 0
0 0 0
0.00230042 -0.00170744 -7.76776e-06
0.00212778 -0.00363718 0.000475996
1.33453e-14 0.00511817 8.0507e-05
-0.00212778 -0.00363718 0.000475996
-0.00230042 -0.00170744 -7.76776e-06
      </DataArray> 
      <DataArray type="Float64" NumberOfComponents="3" Name="Acceleration" format="ascii">
0 0 0
0 0 0
0 0 0
0 0 0
0 0 0
0.00187047 0.00521789 -2.09019e-05
0.00184523 0.00291753 0.000189252
-1.24345e-14 -0.00332214 -0.000115302
-0.00184523 0.00291753 0.000189252
-0.00187047 0.00521789 -2.09019e-05
0.00037502 0.000441357 0
8.70841e-05 -0.000445335 0
2.30926e-14 -0.000920287 0
-8.70841e-05 -0.000445335 0
-0.00037502 0.000441357 0
-0.000486901 -0.00221027 2.84217e-14
-0.000154904 -0.00168104 -6.21725e-15
-1.5099e-14 -0.00212834 -1.06581e-14
0.000154904 -0.00168104 6.21725e-15
0.000486901 -0.00221027 -7.10543e-15
0 0 0
0 0 0
0 0 0
0 0 0
0 0 0
0.00187047 0.00521789 2.09019e-05
0.00184523 0.00291753 -0.000189252
-8.88178e-16 -0.00332214 0.000115302
-0.00184523 0.00291753 -0.000189252
-0.00187047 0.00521789 2.09019e-05
      </DataArray> 
    </PointData>
    <CellData>
    </CellData>
  </Piece>
  </UnstructuredGrid>
</VTKFile>
