<?xml version="1.0"?>
<VTKFile type="UnstructuredGrid">
  <UnstructuredGrid>
  <Piece NumberOfPoints="30"  NumberOfCells="85">
    <Points>
      <DataArray type="Float64" NumberOfComponents="3" format="ascii">
0 0 0
4 0 0
8 0 0
12 0 0
16 0 0
16.0005 2.99185 0.000535548
11.9996 2.99562 0.000713508
8 2.99755 0.00102454
4.00041 2.99562 0.000713508
-0.000472552 2.99185 0.000535548
0.00233761 -0.0976092 8
4.00106 -0.106271 8
8 -0.130803 8
11.9989 -0.106271 8
15.9977 -0.0976092 8
15.9877 2.90488 8
11.9868 2.89503 8
8 2.86888 8
4.01321 2.89503 8
0.0123061 2.90488 8
0 0 16
4 0 16
8 0 16
12 0 16
16 0 16
16.0005 2.99185 15.9995
11.9996 2.99562 15.9993
8 2.99755 15.999
4.00041 2.99562 15.9993
-0.000472552 2.99185 15.9995
      </DataArray>
    </Points>
    <Cells>
      <DataArray type="Int32" Name="connectivity" format="ascii">
0 1
1 2
2 3
3 4
4 5
5 6
6 7
7 8
8 9
9 0
8 1
7 2
6 3
10 11
11 12
12 13
13 14
14 15
15 16
16 17
17 18
18 19
19 10
18 11
17 12
16 13
20 21
21 22
22 23
23 24
24 25
25 26
26 27
27 28
28 29
20 29
28 21
22 27
23 26
20 10
10 0
29 19
19 9
21 11
28 18
11 1
18 8
22 12
27 17
12 2
17 7
23 13
26 16
13 3
16 6
24 14
25 15
15 5
14 4
25 23
29 21
19 11
9 1
15 13
5 3
8 2
6 2
18 12
16 12
28 22
26 22
19 20
19 0
21 18
18 1
22 17
17 2
23 16
16 3
15 24
15 4
20 18
18 0
24 16
16 4
      </DataArray>
      <DataArray type="Int32" Name="offsets" format="ascii">
2
4
6
8
10
12
14
16
18
20
22
24
26
28
30
32
34
36
38
40
42
44
46
48
50
52
54
56
58
60
62
64
66
68
70
72
74
76
78
80
82
84
86
88
90
92
94
96
98
100
102
104
106
108
110
112
114
116
118
120
122
124
126
128
130
132
134
136
138
140
142
144
146
148
150
152
154
156
158
160
162
164
166
168
170
      </DataArray>
      <DataArray type="UInt8" Name="types" format="ascii">
4
4
4
4
4
4
4
4
4
4
4
4
4
4
4
4
4
4
4
4
4
4
4
4
4
4
4
4
4
4
4
4
4
4
4
4
4
4
4
4
4
4
4
4
4
4
4
4
4
4
4
4
4
4
4
4
4
4
4
4
4
4
4
4
4
4
4
4
4
4
4
4
4
4
4
4
4
4
4
4
4
4
4
4
4
      </DataArray>
    </Cells>
    <PointData>
      <DataArray type="Float64" NumberOfComponents="3" Name="Displacement" format="ascii">
0 0 0
0 0 0
0 0 0
0 0 0
0 0 0
0.000472552 -0.00814704 0.000535548
-0.000406196 -0.00438016 0.000713508
0 -0.00245126 0.00102454
0.000406196 -0.00438016 0.000713508
-0.000472552 -0.00814704 0.000535548
0.00233761 -0.0976092 0
0.00106439 -0.106271 0
-3.4639e-14 -0.130803 0
-0.00106439 -0.106271 0
-0.00233761 -0.0976092 0
-0.0123061 -0.0951235 -1.77636e-15
-0.0132114 -0.104973 1.06581e-14
-4.9738e-14 -0.131123 3.19744e-14
0.0132114 -0.104973 3.55271e-15
0.0123061 -0.0951235 -7.99361e-15
0 0 0
0 0 0
0 0 0
0 0 0
0 0 0
0.000472552 -0.00814704 -0.000535548
-0.000406196 -0.00438016 -0.000713508
-3.28626e-14 -0.00245126 -0.00102454
0.000406196 -0.00438016 -0.000713508
-0.000472552 -0.00814704 -0.000535548
      </DataArray> 
      <DataArray type="Float64" NumberOfComponents="3" Name="Velocity" format="ascii">
0 0 0
0 0 0
0 0 0
0 0 0
0 0 0
-0.00340925 -0.00359267 -3.59978e-05
-0.00367882 0.00203597 -0.000249153
-3.38081e-14 0.00495708 -0.000102153
0.00367882 0.00203597 -0.000249153
0.00340925 -0.00359267 -3.59978e-05
0.000557952 0.000602665 0
0.00121023 0.00425356 0
1.51247e-14 0.0064392 0
-0.00121023 0.00425356 0
-0.000557952 0.000602665 0
0.00127638 0.00151853 7.88861e-31
0.000472583 0.00370332 1.4235e-14
5.33813e-15 0.00391627 -3.55875e-15
-0.000472583 0.00370332 -1.24556e-14
-0.00127638 0.00151853 -8.89688e-16
0 0 0
0 0 0
0 0 0
0 0 0
0 0 0
-0.00340925 -0.00359267 3.59978e-05
-0.00367882 0.00203597 0.000249153
-4.18153e-14 0.00495708 0.000102153
0.00367882 0.00203597 0.000249153
0.00340925 -0.00359267 3.59978e-05
      </DataArray> 
      <DataArray type="Float64" NumberOfComponents="3" Name="Acceleration" format="ascii">
0 0 0
0 0 0
0 0 0
0 0 0
0 0 0
0.00150263 0.00377911 -1.79216e-05
0.00198389 -0.000434602 -2.10891e-05
-1.42109e-14 -0.00368849 4.9992e-06
-0.00198389 -0.000434602 -2.10891e-05
-0.00150263 0.00377911 -1.79216e-05
-0.000816727 0.00218507 0
0.000813903 0.000318819 0
-2.04281e-14 0.00179699 0
-0.000813903 0.000318819 0
0.000816727 0.00218507 0
0.000167586 9.30721e-05 1.77636e-15
0.000204868 0.0014388 -3.55271e-15
1.42109e-14 0.00220402 -7.10543e-15
-0.000204868 0.0014388 -3.55271e-15
-0.000167586 9.30721e-05 6.21725e-15
0 0 0
0 0 0
0 0 0
0 0 0
0 0 0
0.00150263 0.00377911 1.79216e-05
0.00198389 -0.000434602 2.10891e-05
2.39808e-14 -0.00368849 -4.9992e-06
-0.00198389 -0.000434602 2.10891e-05
-0.00150263 0.00377911 1.79216e-05
      </DataArray> 
    </PointData>
    <CellData>
    </CellData>
  </Piece>
  </UnstructuredGrid>
</VTKFile>
