<?xml version="1.0"?>
<VTKFile type="UnstructuredGrid">
  <UnstructuredGrid>
  <Piece NumberOfPoints="30"  NumberOfCells="85">
    <Points>
      <DataArray type="Float64" NumberOfComponents="3" format="ascii">
0 0 0
4 0 0
8 0 0
12 0 0
16 0 0
15.9998 2.9998 2.34519e-05
12.0002 2.99911 0.000785937
8 2.99008 0.000230348
3.9998 2.99911 0.000785937
0.000191789 2.9998 2.34519e-05
0.000791871 -0.0295551 8
4.00104 -0.0325313 8
8 -0.041618 8
11.999 -0.0325313 8
15.9992 -0.0295551 8
15.9948 2.968 8
11.9952 2.96633 8
8 2.9566 8
4.0048 2.96633 8
0.00515386 2.968 8
0 0 16
4 0 16
8 0 16
12 0 16
16 0 16
15.9998 2.9998 16
12.0002 2.99911 15.9992
8 2.99008 15.9998
3.9998 2.99911 15.9992
0.000191789 2.9998 16
      </DataArray>
    </Points>
    <Cells>
      <DataArray type="Int32" Name="connectivity" format="ascii">
0 1
1 2
2 3
3 4
4 5
5 6
6 7
7 8
8 9
9 0
8 1
7 2
6 3
10 11
11 12
12 13
13 14
14 15
15 16
16 17
17 18
18 19
19 10
18 11
17 12
16 13
20 21
21 22
22 23
23 24
24 25
25 26
26 27
27 28
28 29
20 29
28 21
22 27
23 26
20 10
10 0
29 19
19 9
21 11
28 18
11 1
18 8
22 12
27 17
12 2
17 7
23 13
26 16
13 3
16 6
24 14
25 15
15 5
14 4
25 23
29 21
19 11
9 1
15 13
5 3
8 2
6 2
18 12
16 12
28 22
26 22
19 20
19 0
21 18
18 1
22 17
17 2
23 16
16 3
15 24
15 4
20 18
18 0
24 16
16 4
      </DataArray>
      <DataArray type="Int32" Name="offsets" format="ascii">
2
4
6
8
10
12
14
16
18
20
22
24
26
28
30
32
34
36
38
40
42
44
46
48
50
52
54
56
58
60
62
64
66
68
70
72
74
76
78
80
82
84
86
88
90
92
94
96
98
100
102
104
106
108
110
112
114
116
118
120
122
124
126
128
130
132
134
136
138
140
142
144
146
148
150
152
154
156
158
160
162
164
166
168
170
      </DataArray>
      <DataArray type="UInt8" Name="types" format="ascii">
4
4
4
4
4
4
4
4
4
4
4
4
4
4
4
4
4
4
4
4
4
4
4
4
4
4
4
4
4
4
4
4
4
4
4
4
4
4
4
4
4
4
4
4
4
4
4
4
4
4
4
4
4
4
4
4
4
4
4
4
4
4
4
4
4
4
4
4
4
4
4
4
4
4
4
4
4
4
4
4
4
4
4
4
4
      </DataArray>
    </Cells>
    <PointData>
      <DataArray type="Float64" NumberOfComponents="3" Name="Displacement" format="ascii">
0 0 0
0 0 0
0 0 0
0 0 0
0 0 0
-0.000191789 -0.00020169 2.34519e-05
0.000203832 -0.000889628 0.000785937
1.24345e-14 -0.00992151 0.000230348
-0.000203832 -0.000889628 0.000785937
0.000191789 -0.00020169 2.34519e-05
0.000791871 -0.0295551 0
0.00104351 -0.0325313 0
8.88178e-14 -0.041618 0
-0.00104351 -0.0325313 0
-0.000791871 -0.0295551 0
-0.00515386 -0.0320039 4.61853e-14
-0.00479754 -0.0336745 2.30926e-14
9.59233e-14 -0.0434034 0
0.00479754 -0.0336745 1.24345e-14
0.00515386 -0.0320039 8.88178e-15
0 0 0
0 0 0
0 0 0
0 0 0
0 0 0
-0.000191789 -0.00020169 -2.34519e-05
0.000203832 -0.000889628 -0.000785937
7.10543e-15 -0.00992151 -0.000230348
-0.000203832 -0.000889628 -0.000785937
0.000191789 -0.00020169 -2.34519e-05
      </DataArray> 
      <DataArray type="Float64" NumberOfComponents="3" Name="Velocity" format="ascii">
0 0 0
0 0 0
0 0 0
0 0 0
0 0 0
-0.00206723 -0.000889094 -3.76625e-05
-0.0012303 -0.00207288 -0.000270679
3.38081e-14 -0.00457096 0.000175883
0.0012303 -0.00207288 -0.000270679
0.00206723 -0.000889094 -3.76625e-05
-0.000116802 -0.00617047 0
9.09606e-05 -0.00929755 0
3.55875e-15 -0.00992553 0
-9.09606e-05 -0.00929755 0
0.000116802 -0.00617047 0
-0.000934025 -0.00735645 2.847e-14
-0.000381038 -0.00850317 -3.91463e-14
1.95731e-14 -0.00679071 -1.77938e-15
0.000381038 -0.00850317 -2.31319e-14
0.000934025 -0.00735645 1.4235e-14
0 0 0
0 0 0
0 0 0
0 0 0
0 0 0
-0.00206723 -0.000889094 3.76625e-05
-0.0012303 -0.00207288 0.000270679
3.91463e-14 -0.00457096 -0.000175883
0.0012303 -0.00207288 0.000270679
0.00206723 -0.000889094 3.76625e-05
      </DataArray> 
      <DataArray type="Float64" NumberOfComponents="3" Name="Acceleration" format="ascii">
0 0 0
0 0 0
0 0 0
0 0 0
0 0 0
0.000428273 -0.00565194 1.54326e-05
-0.000232522 -0.00410767 -0.000223838
2.30926e-14 0.0041273 -6.24189e-05
0.000232522 -0.00410767 -0.000223838
-0.000428273 -0.00565194 1.54326e-05
0.000161753 -0.00212399 0
0.000286625 -0.00137969 0
3.55271e-15 -0.000600395 0
-0.000286625 -0.00137969 0
-0.000161753 -0.00212399 0
0.000746481 0.000126936 -2.13163e-14
0.000157459 -0.000163414 8.88178e-15
2.84217e-14 -0.000231288 -1.06581e-14
-0.000157459 -0.000163414 -8.88178e-15
-0.000746481 0.000126936 8.88178e-15
0 0 0
0 0 0
0 0 0
0 0 0
0 0 0
0.000428273 -0.00565194 -1.54326e-05
-0.000232522 -0.00410767 0.000223838
1.06581e-14 0.0041273 6.24189e-05
0.000232522 -0.00410767 0.000223838
-0.000428273 -0.00565194 -1.54326e-05
      </DataArray> 
    </PointData>
    <CellData>
    </CellData>
  </Piece>
  </UnstructuredGrid>
</VTKFile>
