<?xml version="1.0"?>
<VTKFile type="UnstructuredGrid">
  <UnstructuredGrid>
  <Piece NumberOfPoints="30"  NumberOfCells="85">
    <Points>
      <DataArray type="Float64" NumberOfComponents="3" format="ascii">
0 0 0
4 0 0
8 0 0
12 0 0
16 0 0
16.0056 2.99346 0.000129797
12.0042 2.99232 -3.12753e-05
8 2.99781 4.53384e-06
3.99576 2.99232 -3.12753e-05
-0.00557806 2.99346 0.000129797
0.00223711 -0.0438549 8
4.00145 -0.0225133 8
8 -0.0159439 8
11.9985 -0.0225133 8
15.9978 -0.0438549 8
16.0078 2.95744 8
12.0031 2.9786 8
8 2.982 8
3.99691 2.9786 8
-0.00783654 2.95744 8
0 0 16
4 0 16
8 0 16
12 0 16
16 0 16
16.0056 2.99346 15.9999
12.0042 2.99232 16
8 2.99781 16
3.99576 2.99232 16
-0.00557806 2.99346 15.9999
      </DataArray>
    </Points>
    <Cells>
      <DataArray type="Int32" Name="connectivity" format="ascii">
0 1
1 2
2 3
3 4
4 5
5 6
6 7
7 8
8 9
9 0
8 1
7 2
6 3
10 11
11 12
12 13
13 14
14 15
15 16
16 17
17 18
18 19
19 10
18 11
17 12
16 13
20 21
21 22
22 23
23 24
24 25
25 26
26 27
27 28
28 29
20 29
28 21
22 27
23 26
20 10
10 0
29 19
19 9
21 11
28 18
11 1
18 8
22 12
27 17
12 2
17 7
23 13
26 16
13 3
16 6
24 14
25 15
15 5
14 4
25 23
29 21
19 11
9 1
15 13
5 3
8 2
6 2
18 12
16 12
28 22
26 22
19 20
19 0
21 18
18 1
22 17
17 2
23 16
16 3
15 24
15 4
20 18
18 0
24 16
16 4
      </DataArray>
      <DataArray type="Int32" Name="offsets" format="ascii">
2
4
6
8
10
12
14
16
18
20
22
24
26
28
30
32
34
36
38
40
42
44
46
48
50
52
54
56
58
60
62
64
66
68
70
72
74
76
78
80
82
84
86
88
90
92
94
96
98
100
102
104
106
108
110
112
114
116
118
120
122
124
126
128
130
132
134
136
138
140
142
144
146
148
150
152
154
156
158
160
162
164
166
168
170
      </DataArray>
      <DataArray type="UInt8" Name="types" format="ascii">
4
4
4
4
4
4
4
4
4
4
4
4
4
4
4
4
4
4
4
4
4
4
4
4
4
4
4
4
4
4
4
4
4
4
4
4
4
4
4
4
4
4
4
4
4
4
4
4
4
4
4
4
4
4
4
4
4
4
4
4
4
4
4
4
4
4
4
4
4
4
4
4
4
4
4
4
4
4
4
4
4
4
4
4
4
      </DataArray>
    </Cells>
    <PointData>
      <DataArray type="Float64" NumberOfComponents="3" Name="Displacement" format="ascii">
0 0 0
0 0 0
0 0 0
0 0 0
0 0 0
0.00557806 -0.00654317 0.000129797
0.00423611 -0.00767506 -3.12753e-05
1.77636e-15 -0.00219398 4.53384e-06
-0.00423611 -0.00767506 -3.12753e-05
-0.00557806 -0.00654317 0.000129797
0.00223711 -0.0438549 0
0.00145117 -0.0225133 0
3.73035e-14 -0.0159439 0
-0.00145117 -0.0225133 0
-0.00223711 -0.0438549 0
0.00783654 -0.0425582 -1.95399e-14
0.00308775 -0.0214034 -4.44089e-15
8.88178e-15 -0.0180024 -2.4869e-14
-0.00308775 -0.0214034 1.59872e-14
-0.00783654 -0.0425582 -2.93099e-14
0 0 0
0 0 0
0 0 0
0 0 0
0 0 0
0.00557806 -0.00654317 -0.000129797
0.00423611 -0.00767506 3.12753e-05
7.10543e-15 -0.00219398 -4.53384e-06
-0.00423611 -0.00767506 3.12753e-05
-0.00557806 -0.00654317 -0.000129797
      </DataArray> 
      <DataArray type="Float64" NumberOfComponents="3" Name="Velocity" format="ascii">
0 0 0
0 0 0
0 0 0
0 0 0
0 0 0
-0.000244273 0.00528923 -5.7726e-05
-9.49447e-05 0.00450504 -7.93189e-05
-1.06763e-14 -0.00466695 3.00092e-05
9.49447e-05 0.00450504 -7.93189e-05
0.000244273 0.00528923 -5.7726e-05
0.000409575 0.0059511 0
0.00127984 0.00784826 0
-7.1175e-15 0.0104885 0
-0.00127984 0.00784826 0
-0.000409575 0.0059511 0
0.00145569 0.00589188 -3.55875e-15
0.000691689 0.00733776 8.00719e-15
1.4235e-14 0.00758091 -7.1175e-15
-0.000691689 0.00733776 -7.1175e-15
-0.00145569 0.00589188 4.44844e-15
0 0 0
0 0 0
0 0 0
0 0 0
0 0 0
-0.000244273 0.00528923 5.7726e-05
-9.49447e-05 0.00450504 7.93189e-05
-1.60144e-14 -0.00466695 -3.00092e-05
9.49447e-05 0.00450504 7.93189e-05
0.000244273 0.00528923 5.7726e-05
      </DataArray> 
      <DataArray type="Float64" NumberOfComponents="3" Name="Acceleration" format="ascii">
0 0 0
0 0 0
0 0 0
0 0 0
0 0 0
-0.00125641 0.000368624 -1.79198e-05
-0.00132197 0.00177401 1.34675e-05
-5.32907e-15 -0.00396793 4.31933e-06
0.00132197 0.00177401 1.34675e-05
0.00125641 0.000368624 -1.79198e-05
-0.000479156 0.00114088 0
0.00103078 -0.000319478 0
5.32907e-15 -0.00142103 0
-0.00103078 -0.000319478 0
0.000479156 0.00114088 0
-0.000628417 -0.000894195 5.32907e-15
-0.00014846 -0.000982266 -8.88178e-16
8.88178e-15 -0.00106844 3.55271e-15
0.00014846 -0.000982266 -5.32907e-15
0.000628417 -0.000894195 6.21725e-15
0 0 0
0 0 0
0 0 0
0 0 0
0 0 0
-0.00125641 0.000368624 1.79198e-05
-0.00132197 0.00177401 -1.34675e-05
-3.55271e-15 -0.00396793 -4.31933e-06
0.00132197 0.00177401 -1.34675e-05
0.00125641 0.000368624 1.79198e-05
      </DataArray> 
    </PointData>
    <CellData>
    </CellData>
  </Piece>
  </UnstructuredGrid>
</VTKFile>
