<?xml version="1.0"?>
<VTKFile type="UnstructuredGrid">
  <UnstructuredGrid>
  <Piece NumberOfPoints="30"  NumberOfCells="85">
    <Points>
      <DataArray type="Float64" NumberOfComponents="3" format="ascii">
0 0 0
4 0 0
8 0 0
12 0 0
16 0 0
16.0056 2.98824 0.000292847
12.0028 2.9934 0.000311219
8 2.998 -5.06481e-05
3.99725 2.9934 0.000311219
-0.00562096 2.98824 0.000292847
0.00248682 -0.0651689 8
4.00259 -0.0505912 8
8 -0.048923 8
11.9974 -0.0505912 8
15.9975 -0.0651689 8
16.0011 2.93713 8
11.9981 2.95026 8
8 2.94995 8
4.00189 2.95026 8
-0.00109142 2.93713 8
0 0 16
4 0 16
8 0 16
12 0 16
16 0 16
16.0056 2.98824 15.9997
12.0028 2.9934 15.9997
8 2.998 16.0001
3.99725 2.9934 15.9997
-0.00562096 2.98824 15.9997
      </DataArray>
    </Points>
    <Cells>
      <DataArray type="Int32" Name="connectivity" format="ascii">
0 1
1 2
2 3
3 4
4 5
5 6
6 7
7 8
8 9
9 0
8 1
7 2
6 3
10 11
11 12
12 13
13 14
14 15
15 16
16 17
17 18
18 19
19 10
18 11
17 12
16 13
20 21
21 22
22 23
23 24
24 25
25 26
26 27
27 28
28 29
20 29
28 21
22 27
23 26
20 10
10 0
29 19
19 9
21 11
28 18
11 1
18 8
22 12
27 17
12 2
17 7
23 13
26 16
13 3
16 6
24 14
25 15
15 5
14 4
25 23
29 21
19 11
9 1
15 13
5 3
8 2
6 2
18 12
16 12
28 22
26 22
19 20
19 0
21 18
18 1
22 17
17 2
23 16
16 3
15 24
15 4
20 18
18 0
24 16
16 4
      </DataArray>
      <DataArray type="Int32" Name="offsets" format="ascii">
2
4
6
8
10
12
14
16
18
20
22
24
26
28
30
32
34
36
38
40
42
44
46
48
50
52
54
56
58
60
62
64
66
68
70
72
74
76
78
80
82
84
86
88
90
92
94
96
98
100
102
104
106
108
110
112
114
116
118
120
122
124
126
128
130
132
134
136
138
140
142
144
146
148
150
152
154
156
158
160
162
164
166
168
170
      </DataArray>
      <DataArray type="UInt8" Name="types" format="ascii">
4
4
4
4
4
4
4
4
4
4
4
4
4
4
4
4
4
4
4
4
4
4
4
4
4
4
4
4
4
4
4
4
4
4
4
4
4
4
4
4
4
4
4
4
4
4
4
4
4
4
4
4
4
4
4
4
4
4
4
4
4
4
4
4
4
4
4
4
4
4
4
4
4
4
4
4
4
4
4
4
4
4
4
4
4
      </DataArray>
    </Cells>
    <PointData>
      <DataArray type="Float64" NumberOfComponents="3" Name="Displacement" format="ascii">
0 0 0
0 0 0
0 0 0
0 0 0
0 0 0
0.00562096 -0.0117605 0.000292847
0.00275041 -0.00659869 0.000311219
-7.99361e-15 -0.00199579 -5.06481e-05
-0.00275041 -0.00659869 0.000311219
-0.00562096 -0.0117605 0.000292847
0.00248682 -0.0651689 0
0.00259245 -0.0505912 0
-2.66454e-15 -0.048923 0
-0.00259245 -0.0505912 0
-0.00248682 -0.0651689 0
0.00109142 -0.0628661 1.59872e-14
-0.00189195 -0.0497405 -9.76996e-15
-3.55271e-14 -0.0500458 -2.13163e-14
0.00189195 -0.0497405 -8.88178e-16
-0.00109142 -0.0628661 3.55271e-15
0 0 0
0 0 0
0 0 0
0 0 0
0 0 0
0.00562096 -0.0117605 -0.000292847
0.00275041 -0.00659869 -0.000311219
3.55271e-14 -0.00199579 5.06481e-05
-0.00275041 -0.00659869 -0.000311219
-0.00562096 -0.0117605 -0.000292847
      </DataArray> 
      <DataArray type="Float64" NumberOfComponents="3" Name="Velocity" format="ascii">
0 0 0
0 0 0
0 0 0
0 0 0
0 0 0
-0.00191007 -0.0019626 -5.60554e-05
-0.00220224 0.00235305 5.44622e-05
-8.00719e-15 0.00457507 -0.000138094
0.00220224 0.00235305 5.44622e-05
0.00191007 -0.0019626 -5.60554e-05
-0.000806684 0.00671186 0
0.000628011 0.00889533 0
1.51247e-14 0.0131234 0
-0.000628011 0.00889533 0
0.000806684 0.00671186 0
0.00263409 0.00625613 -1.77938e-14
0.00174293 0.00814062 8.89688e-16
1.4235e-14 0.0109257 -8.89688e-15
-0.00174293 0.00814062 8.89688e-16
-0.00263409 0.00625613 -1.24556e-14
0 0 0
0 0 0
0 0 0
0 0 0
0 0 0
-0.00191007 -0.0019626 5.60554e-05
-0.00220224 0.00235305 -5.44622e-05
3.20288e-14 0.00457507 0.000138094
0.00220224 0.00235305 -5.44622e-05
0.00191007 -0.0019626 5.60554e-05
      </DataArray> 
      <DataArray type="Float64" NumberOfComponents="3" Name="Acceleration" format="ascii">
0 0 0
0 0 0
0 0 0
0 0 0
0 0 0
-0.000913585 0.00664865 -4.68752e-05
0.000782726 0.00104436 -6.00188e-05
3.10862e-14 -0.00417239 7.73118e-05
-0.000782726 0.00104436 -6.00188e-05
0.000913585 0.00664865 -4.68752e-05
8.37697e-05 0.0020084 0
4.56595e-05 -0.000454548 0
-1.68754e-14 -0.00138493 0
-4.56595e-05 -0.000454548 0
-8.37697e-05 0.0020084 0
-6.31692e-05 -0.000622031 -1.77636e-15
0.000181559 0.000314824 4.44089e-15
1.77636e-14 -0.000274197 -8.04638e-29
-0.000181559 0.000314824 -4.44089e-15
6.31692e-05 -0.000622031 3.55271e-15
0 0 0
0 0 0
0 0 0
0 0 0
0 0 0
-0.000913585 0.00664865 4.68752e-05
0.000782726 0.00104436 6.00188e-05
3.55271e-15 -0.00417239 -7.73118e-05
-0.000782726 0.00104436 6.00188e-05
0.000913585 0.00664865 4.68752e-05
      </DataArray> 
    </PointData>
    <CellData>
    </CellData>
  </Piece>
  </UnstructuredGrid>
</VTKFile>
