<?xml version="1.0"?>
<VTKFile type="UnstructuredGrid">
  <UnstructuredGrid>
  <Piece NumberOfPoints="30"  NumberOfCells="85">
    <Points>
      <DataArray type="Float64" NumberOfComponents="3" format="ascii">
0 0 0
4 0 0
8 0 0
12 0 0
16 0 0
16.003 2.99625 -8.34021e-05
12.002 2.99676 0.000796584
8 2.99614 0.000217036
3.99803 2.99676 0.000796584
-0.00303433 2.99625 -8.34021e-05
0.00249644 -0.00474104 8
4.00251 0.00199486 8
8 5.69983e-06 8
11.9975 0.00199486 8
15.9975 -0.00474104 8
16.0023 2.99231 8
12.0018 3.00015 8
8 2.99948 8
3.99818 3.00015 8
-0.00229258 2.99231 8
0 0 16
4 0 16
8 0 16
12 0 16
16 0 16
16.003 2.99625 16.0001
12.002 2.99676 15.9992
8 2.99614 15.9998
3.99803 2.99676 15.9992
-0.00303433 2.99625 16.0001
      </DataArray>
    </Points>
    <Cells>
      <DataArray type="Int32" Name="connectivity" format="ascii">
0 1
1 2
2 3
3 4
4 5
5 6
6 7
7 8
8 9
9 0
8 1
7 2
6 3
10 11
11 12
12 13
13 14
14 15
15 16
16 17
17 18
18 19
19 10
18 11
17 12
16 13
20 21
21 22
22 23
23 24
24 25
25 26
26 27
27 28
28 29
20 29
28 21
22 27
23 26
20 10
10 0
29 19
19 9
21 11
28 18
11 1
18 8
22 12
27 17
12 2
17 7
23 13
26 16
13 3
16 6
24 14
25 15
15 5
14 4
25 23
29 21
19 11
9 1
15 13
5 3
8 2
6 2
18 12
16 12
28 22
26 22
19 20
19 0
21 18
18 1
22 17
17 2
23 16
16 3
15 24
15 4
20 18
18 0
24 16
16 4
      </DataArray>
      <DataArray type="Int32" Name="offsets" format="ascii">
2
4
6
8
10
12
14
16
18
20
22
24
26
28
30
32
34
36
38
40
42
44
46
48
50
52
54
56
58
60
62
64
66
68
70
72
74
76
78
80
82
84
86
88
90
92
94
96
98
100
102
104
106
108
110
112
114
116
118
120
122
124
126
128
130
132
134
136
138
140
142
144
146
148
150
152
154
156
158
160
162
164
166
168
170
      </DataArray>
      <DataArray type="UInt8" Name="types" format="ascii">
4
4
4
4
4
4
4
4
4
4
4
4
4
4
4
4
4
4
4
4
4
4
4
4
4
4
4
4
4
4
4
4
4
4
4
4
4
4
4
4
4
4
4
4
4
4
4
4
4
4
4
4
4
4
4
4
4
4
4
4
4
4
4
4
4
4
4
4
4
4
4
4
4
4
4
4
4
4
4
4
4
4
4
4
4
      </DataArray>
    </Cells>
    <PointData>
      <DataArray type="Float64" NumberOfComponents="3" Name="Displacement" format="ascii">
0 0 0
0 0 0
0 0 0
0 0 0
0 0 0
0.00303433 -0.00374627 -8.34021e-05
0.00197271 -0.00324499 0.000796584
-7.10543e-15 -0.00386091 0.000217036
-0.00197271 -0.00324499 0.000796584
-0.00303433 -0.00374627 -8.34021e-05
0.00249644 -0.00474104 0
0.00251124 0.00199486 0
1.22569e-13 5.69983e-06 0
-0.00251124 0.00199486 0
-0.00249644 -0.00474104 0
0.00229258 -0.00768903 -1.59872e-14
0.00181735 0.000151527 5.32907e-15
8.17124e-14 -0.000522329 1.77636e-15
-0.00181735 0.000151527 -1.77636e-15
-0.00229258 -0.00768903 -1.86517e-14
0 0 0
0 0 0
0 0 0
0 0 0
0 0 0
0.00303433 -0.00374627 8.34021e-05
0.00197271 -0.00324499 -0.000796584
5.32907e-15 -0.00386091 -0.000217036
-0.00197271 -0.00324499 -0.000796584
-0.00303433 -0.00374627 8.34021e-05
      </DataArray> 
      <DataArray type="Float64" NumberOfComponents="3" Name="Velocity" format="ascii">
0 0 0
0 0 0
0 0 0
0 0 0
0 0 0
0.00147423 -0.00518162 4.07496e-05
0.000844608 -0.00456244 0.000151149
-1.4235e-14 -0.00571909 1.27892e-05
-0.000844608 -0.00456244 0.000151149
-0.00147423 -0.00518162 4.07496e-05
-0.000978304 -0.00250846 0
0.000961878 -0.00241463 0
2.66906e-14 0.000421981 0
-0.000961878 -0.00241463 0
0.000978304 -0.00250846 0
0.000465584 -0.00319097 -2.66906e-14
0.000375626 -0.00240903 -2.13525e-14
-1.77938e-14 0.000312211 -5.33813e-15
-0.000375626 -0.00240903 -1.60144e-14
-0.000465584 -0.00319097 -2.75803e-14
0 0 0
0 0 0
0 0 0
0 0 0
0 0 0
0.00147423 -0.00518162 -4.07496e-05
0.000844608 -0.00456244 -0.000151149
3.55875e-15 -0.00571909 -1.27892e-05
-0.000844608 -0.00456244 -0.000151149
-0.00147423 -0.00518162 -4.07496e-05
      </DataArray> 
      <DataArray type="Float64" NumberOfComponents="3" Name="Acceleration" format="ascii">
0 0 0
0 0 0
0 0 0
0 0 0
0 0 0
-0.000880282 -0.00228002 3.17265e-05
-0.000421274 -0.00215148 -0.000248247
7.10543e-15 -0.00220895 -8.46482e-05
0.000421274 -0.00215148 -0.000248247
0.000880282 -0.00228002 3.17265e-05
1.74365e-05 -0.00255636 0
-0.00059636 -0.00158709 0
-1.59872e-14 0.000313686 0
0.00059636 -0.00158709 0
-1.74365e-05 -0.00255636 0
0.000258503 -0.000730568 2.30926e-14
-0.000569223 -0.00133519 1.24345e-14
-1.06581e-14 -0.00244001 1.59872e-14
0.000569223 -0.00133519 -5.32907e-15
-0.000258503 -0.000730568 2.66454e-15
0 0 0
0 0 0
0 0 0
0 0 0
0 0 0
-0.000880282 -0.00228002 -3.17265e-05
-0.000421274 -0.00215148 0.000248247
8.88178e-15 -0.00220895 8.46482e-05
0.000421274 -0.00215148 0.000248247
0.000880282 -0.00228002 -3.17265e-05
      </DataArray> 
    </PointData>
    <CellData>
    </CellData>
  </Piece>
  </UnstructuredGrid>
</VTKFile>
