<?xml version="1.0"?>
<VTKFile type="UnstructuredGrid">
  <UnstructuredGrid>
  <Piece NumberOfPoints="30"  NumberOfCells="85">
    <Points>
      <DataArray type="Float64" NumberOfComponents="3" format="ascii">
0 0 0
4 0 0
8 0 0
12 0 0
16 0 0
16.0003 3.00091 4.14717e-05
12.0017 2.99417 0.00051992
8 2.99974 0.000116479
3.99834 2.99417 0.00051992
-0.000310242 3.00091 4.14717e-05
0.00115314 -0.0028026 8
4.00185 0.00239872 8
8 0.00241418 8
11.9981 0.00239872 8
15.9988 -0.0028026 8
16.0009 2.99661 8
12 3.00008 8
8 2.9982 8
3.99998 3.00008 8
-0.00092375 2.99661 8
0 0 16
4 0 16
8 0 16
12 0 16
16 0 16
16.0003 3.00091 16
12.0017 2.99417 15.9995
8 2.99974 15.9999
3.99834 2.99417 15.9995
-0.000310242 3.00091 16
      </DataArray>
    </Points>
    <Cells>
      <DataArray type="Int32" Name="connectivity" format="ascii">
0 1
1 2
2 3
3 4
4 5
5 6
6 7
7 8
8 9
9 0
8 1
7 2
6 3
10 11
11 12
12 13
13 14
14 15
15 16
16 17
17 18
18 19
19 10
18 11
17 12
16 13
20 21
21 22
22 23
23 24
24 25
25 26
26 27
27 28
28 29
20 29
28 21
22 27
23 26
20 10
10 0
29 19
19 9
21 11
28 18
11 1
18 8
22 12
27 17
12 2
17 7
23 13
26 16
13 3
16 6
24 14
25 15
15 5
14 4
25 23
29 21
19 11
9 1
15 13
5 3
8 2
6 2
18 12
16 12
28 22
26 22
19 20
19 0
21 18
18 1
22 17
17 2
23 16
16 3
15 24
15 4
20 18
18 0
24 16
16 4
      </DataArray>
      <DataArray type="Int32" Name="offsets" format="ascii">
2
4
6
8
10
12
14
16
18
20
22
24
26
28
30
32
34
36
38
40
42
44
46
48
50
52
54
56
58
60
62
64
66
68
70
72
74
76
78
80
82
84
86
88
90
92
94
96
98
100
102
104
106
108
110
112
114
116
118
120
122
124
126
128
130
132
134
136
138
140
142
144
146
148
150
152
154
156
158
160
162
164
166
168
170
      </DataArray>
      <DataArray type="UInt8" Name="types" format="ascii">
4
4
4
4
4
4
4
4
4
4
4
4
4
4
4
4
4
4
4
4
4
4
4
4
4
4
4
4
4
4
4
4
4
4
4
4
4
4
4
4
4
4
4
4
4
4
4
4
4
4
4
4
4
4
4
4
4
4
4
4
4
4
4
4
4
4
4
4
4
4
4
4
4
4
4
4
4
4
4
4
4
4
4
4
4
      </DataArray>
    </Cells>
    <PointData>
      <DataArray type="Float64" NumberOfComponents="3" Name="Displacement" format="ascii">
0 0 0
0 0 0
0 0 0
0 0 0
0 0 0
0.000310242 0.00090618 4.14717e-05
0.00166051 -0.00583327 0.00051992
3.90799e-14 -0.000262401 0.000116479
-0.00166051 -0.00583327 0.00051992
-0.000310242 0.00090618 4.14717e-05
0.00115314 -0.0028026 0
0.00185335 0.00239872 0
-1.33227e-14 0.00241418 0
-0.00185335 0.00239872 0
-0.00115314 -0.0028026 0
0.00092375 -0.00339294 5.32907e-15
2.41532e-05 7.61992e-05 8.88178e-15
-2.75335e-14 -0.00179811 -3.55271e-15
-2.41532e-05 7.61992e-05 -1.86517e-14
-0.00092375 -0.00339294 -3.55271e-15
0 0 0
0 0 0
0 0 0
0 0 0
0 0 0
0.000310242 0.00090618 -4.14717e-05
0.00166051 -0.00583327 -0.00051992
3.73035e-14 -0.000262401 -0.000116479
-0.00166051 -0.00583327 -0.00051992
-0.000310242 0.00090618 -4.14717e-05
      </DataArray> 
      <DataArray type="Float64" NumberOfComponents="3" Name="Velocity" format="ascii">
0 0 0
0 0 0
0 0 0
0 0 0
0 0 0
-0.00217614 0.00286419 -7.0222e-05
-0.00126287 0.00151406 4.65524e-06
2.49113e-14 0.0015747 6.26747e-05
0.00126287 0.00151406 4.65524e-06
0.00217614 0.00286419 -7.0222e-05
0.00030977 -0.00283191 0
-0.000751456 -0.000988471 0
2.40216e-14 0.00112409 0
0.000751456 -0.000988471 0
-0.00030977 -0.00283191 0
0.000795512 -0.000998708 -1.4235e-14
0.000700199 -0.00170052 -2.31319e-14
4.00359e-14 0.000297943 1.77938e-14
-0.000700199 -0.00170052 6.22781e-15
-0.000795512 -0.000998708 -7.1175e-15
0 0 0
0 0 0
0 0 0
0 0 0
0 0 0
-0.00217614 0.00286419 7.0222e-05
-0.00126287 0.00151406 -4.65524e-06
1.95731e-14 0.0015747 -6.26747e-05
0.00126287 0.00151406 -4.65524e-06
0.00217614 0.00286419 7.0222e-05
      </DataArray> 
      <DataArray type="Float64" NumberOfComponents="3" Name="Acceleration" format="ascii">
0 0 0
0 0 0
0 0 0
0 0 0
0 0 0
0.000627629 -0.00714248 -1.52468e-05
-0.00101061 0.000535155 -0.000160775
-4.9738e-14 -0.00599314 -4.56435e-05
0.00101061 0.000535155 -0.000160775
-0.000627629 -0.00714248 -1.52468e-05
0.000459343 -0.000511973 0
-0.000822129 -0.00173048 0
1.5099e-14 -0.00280991 0
0.000822129 -0.00173048 0
-0.000459343 -0.000511973 0
-3.35011e-05 -0.00204945 -1.59872e-14
0.000390418 -0.000925721 -5.32907e-15
8.88178e-16 -0.000722837 -3.55271e-15
-0.000390418 -0.000925721 9.76996e-15
3.35011e-05 -0.00204945 -7.10543e-15
0 0 0
0 0 0
0 0 0
0 0 0
0 0 0
0.000627629 -0.00714248 1.52468e-05
-0.00101061 0.000535155 0.000160775
-2.30926e-14 -0.00599314 4.56435e-05
0.00101061 0.000535155 0.000160775
-0.000627629 -0.00714248 1.52468e-05
      </DataArray> 
    </PointData>
    <CellData>
    </CellData>
  </Piece>
  </UnstructuredGrid>
</VTKFile>
