<?xml version="1.0"?>
<VTKFile type="UnstructuredGrid">
  <UnstructuredGrid>
  <Piece NumberOfPoints="30"  NumberOfCells="85">
    <Points>
      <DataArray type="Float64" NumberOfComponents="3" format="ascii">
0 0 0
4 0 0
8 0 0
12 0 0
16 0 0
16.0071 2.98856 0.000647336
12.0037 2.99427 9.64023e-05
8 2.98817 0.00120538
3.99626 2.99427 9.64023e-05
-0.00711435 2.98856 0.000647336
-0.00108137 -0.0975738 8
3.99859 -0.110898 8
8 -0.129863 8
12.0014 -0.110898 8
16.0011 -0.0975738 8
15.987 2.90475 8
11.9873 2.89151 8
8 2.87322 8
4.01266 2.89151 8
0.0130297 2.90475 8
0 0 16
4 0 16
8 0 16
12 0 16
16 0 16
16.0071 2.98856 15.9994
12.0037 2.99427 15.9999
8 2.98817 15.9988
3.99626 2.99427 15.9999
-0.00711435 2.98856 15.9994
      </DataArray>
    </Points>
    <Cells>
      <DataArray type="Int32" Name="connectivity" format="ascii">
0 1
1 2
2 3
3 4
4 5
5 6
6 7
7 8
8 9
9 0
8 1
7 2
6 3
10 11
11 12
12 13
13 14
14 15
15 16
16 17
17 18
18 19
19 10
18 11
17 12
16 13
20 21
21 22
22 23
23 24
24 25
25 26
26 27
27 28
28 29
20 29
28 21
22 27
23 26
20 10
10 0
29 19
19 9
21 11
28 18
11 1
18 8
22 12
27 17
12 2
17 7
23 13
26 16
13 3
16 6
24 14
25 15
15 5
14 4
25 23
29 21
19 11
9 1
15 13
5 3
8 2
6 2
18 12
16 12
28 22
26 22
19 20
19 0
21 18
18 1
22 17
17 2
23 16
16 3
15 24
15 4
20 18
18 0
24 16
16 4
      </DataArray>
      <DataArray type="Int32" Name="offsets" format="ascii">
2
4
6
8
10
12
14
16
18
20
22
24
26
28
30
32
34
36
38
40
42
44
46
48
50
52
54
56
58
60
62
64
66
68
70
72
74
76
78
80
82
84
86
88
90
92
94
96
98
100
102
104
106
108
110
112
114
116
118
120
122
124
126
128
130
132
134
136
138
140
142
144
146
148
150
152
154
156
158
160
162
164
166
168
170
      </DataArray>
      <DataArray type="UInt8" Name="types" format="ascii">
4
4
4
4
4
4
4
4
4
4
4
4
4
4
4
4
4
4
4
4
4
4
4
4
4
4
4
4
4
4
4
4
4
4
4
4
4
4
4
4
4
4
4
4
4
4
4
4
4
4
4
4
4
4
4
4
4
4
4
4
4
4
4
4
4
4
4
4
4
4
4
4
4
4
4
4
4
4
4
4
4
4
4
4
4
      </DataArray>
    </Cells>
    <PointData>
      <DataArray type="Float64" NumberOfComponents="3" Name="Displacement" format="ascii">
0 0 0
0 0 0
0 0 0
0 0 0
0 0 0
0.00711435 -0.0114413 0.000647336
0.00374185 -0.00573006 9.64023e-05
1.24345e-14 -0.0118317 0.00120538
-0.00374185 -0.00573006 9.64023e-05
-0.00711435 -0.0114413 0.000647336
-0.00108137 -0.0975738 0
-0.00140506 -0.110898 0
-1.12799e-13 -0.129863 0
0.00140506 -0.110898 0
0.00108137 -0.0975738 0
-0.0130297 -0.0952486 -1.42109e-14
-0.0126597 -0.108491 -7.63833e-14
-1.10134e-13 -0.126781 5.32907e-15
0.0126597 -0.108491 -4.70735e-14
0.0130297 -0.0952486 3.55271e-15
0 0 0
0 0 0
0 0 0
0 0 0
0 0 0
0.00711435 -0.0114413 -0.000647336
0.00374185 -0.00573006 -9.64023e-05
-1.24345e-14 -0.0118317 -0.00120538
-0.00374185 -0.00573006 -9.64023e-05
-0.00711435 -0.0114413 -0.000647336
      </DataArray> 
      <DataArray type="Float64" NumberOfComponents="3" Name="Velocity" format="ascii">
0 0 0
0 0 0
0 0 0
0 0 0
0 0 0
0.000437772 0.00434285 -9.9895e-05
0.0014719 -0.000462034 0.000400271
5.33813e-14 -0.000940022 7.61078e-05
-0.0014719 -0.000462034 0.000400271
-0.000437772 0.00434285 -9.9895e-05
-0.000671862 0.00444101 0
0.000262499 0.00201856 0
1.60144e-14 0.00460853 0
-0.000262499 0.00201856 0
0.000671862 0.00444101 0
-0.000457461 0.00405621 2.31319e-14
-0.000187653 0.00200691 -1.15659e-14
2.93597e-14 0.00269883 2.847e-14
0.000187653 0.00200691 -2.75803e-14
0.000457461 0.00405621 -2.13525e-14
0 0 0
0 0 0
0 0 0
0 0 0
0 0 0
0.000437772 0.00434285 9.9895e-05
0.0014719 -0.000462034 -0.000400271
4.62638e-14 -0.000940022 -7.61078e-05
-0.0014719 -0.000462034 -0.000400271
-0.000437772 0.00434285 9.9895e-05
      </DataArray> 
      <DataArray type="Float64" NumberOfComponents="3" Name="Acceleration" format="ascii">
0 0 0
0 0 0
0 0 0
0 0 0
0 0 0
-0.00195301 0.00583362 -6.64045e-05
-5.02005e-05 -7.80867e-05 0.000182472
-8.88178e-15 0.0061261 -0.000146411
5.02005e-05 -7.80867e-05 0.000182472
0.00195301 0.00583362 -6.64045e-05
-0.000186902 0.00205845 0
0.00146008 0.00105035 0
5.32907e-15 0.00276201 0
-0.00146008 0.00105035 0
0.000186902 0.00205845 0
0.000553108 0.000135763 2.84217e-14
3.00107e-05 0.00149978 2.04281e-14
3.28626e-14 0.000526335 -8.88178e-15
-3.00107e-05 0.00149978 9.76996e-15
-0.000553108 0.000135763 3.55271e-15
0 0 0
0 0 0
0 0 0
0 0 0
0 0 0
-0.00195301 0.00583362 6.64045e-05
-5.02005e-05 -7.80867e-05 -0.000182472
-1.77636e-15 0.0061261 0.000146411
5.02005e-05 -7.80867e-05 -0.000182472
0.00195301 0.00583362 6.64045e-05
      </DataArray> 
    </PointData>
    <CellData>
    </CellData>
  </Piece>
  </UnstructuredGrid>
</VTKFile>
