<?xml version="1.0"?>
<VTKFile type="UnstructuredGrid">
  <UnstructuredGrid>
  <Piece NumberOfPoints="30"  NumberOfCells="85">
    <Points>
      <DataArray type="Float64" NumberOfComponents="3" format="ascii">
0 0 0
4 0 0
8 0 0
12 0 0
16 0 0
16.0045 2.99027 0.000906769
12.0033 2.98991 0.00199993
8 2.9895 0.00111267
3.99669 2.98991 0.00199993
-0.00451333 2.99027 0.000906769
0.00401205 -0.11783 8
4.00364 -0.110044 8
8 -0.122786 8
11.9964 -0.110044 8
15.996 -0.11783 8
15.9927 2.88377 8
11.9905 2.89372 8
8 2.88047 8
4.00947 2.89372 8
0.00729447 2.88377 8
0 0 16
4 0 16
8 0 16
12 0 16
16 0 16
16.0045 2.99027 15.9991
12.0033 2.98991 15.998
8 2.9895 15.9989
3.99669 2.98991 15.998
-0.00451333 2.99027 15.9991
      </DataArray>
    </Points>
    <Cells>
      <DataArray type="Int32" Name="connectivity" format="ascii">
0 1
1 2
2 3
3 4
4 5
5 6
6 7
7 8
8 9
9 0
8 1
7 2
6 3
10 11
11 12
12 13
13 14
14 15
15 16
16 17
17 18
18 19
19 10
18 11
17 12
16 13
20 21
21 22
22 23
23 24
24 25
25 26
26 27
27 28
28 29
20 29
28 21
22 27
23 26
20 10
10 0
29 19
19 9
21 11
28 18
11 1
18 8
22 12
27 17
12 2
17 7
23 13
26 16
13 3
16 6
24 14
25 15
15 5
14 4
25 23
29 21
19 11
9 1
15 13
5 3
8 2
6 2
18 12
16 12
28 22
26 22
19 20
19 0
21 18
18 1
22 17
17 2
23 16
16 3
15 24
15 4
20 18
18 0
24 16
16 4
      </DataArray>
      <DataArray type="Int32" Name="offsets" format="ascii">
2
4
6
8
10
12
14
16
18
20
22
24
26
28
30
32
34
36
38
40
42
44
46
48
50
52
54
56
58
60
62
64
66
68
70
72
74
76
78
80
82
84
86
88
90
92
94
96
98
100
102
104
106
108
110
112
114
116
118
120
122
124
126
128
130
132
134
136
138
140
142
144
146
148
150
152
154
156
158
160
162
164
166
168
170
      </DataArray>
      <DataArray type="UInt8" Name="types" format="ascii">
4
4
4
4
4
4
4
4
4
4
4
4
4
4
4
4
4
4
4
4
4
4
4
4
4
4
4
4
4
4
4
4
4
4
4
4
4
4
4
4
4
4
4
4
4
4
4
4
4
4
4
4
4
4
4
4
4
4
4
4
4
4
4
4
4
4
4
4
4
4
4
4
4
4
4
4
4
4
4
4
4
4
4
4
4
      </DataArray>
    </Cells>
    <PointData>
      <DataArray type="Float64" NumberOfComponents="3" Name="Displacement" format="ascii">
0 0 0
0 0 0
0 0 0
0 0 0
0 0 0
0.00451333 -0.00972862 0.000906769
0.00331284 -0.010092 0.00199993
1.95399e-14 -0.0105023 0.00111267
-0.00331284 -0.010092 0.00199993
-0.00451333 -0.00972862 0.000906769
0.00401205 -0.11783 0
0.00364359 -0.110044 0
1.06581e-13 -0.122786 0
-0.00364359 -0.110044 0
-0.00401205 -0.11783 0
-0.00729447 -0.116232 6.03961e-14
-0.00947285 -0.106277 8.88178e-14
1.58096e-13 -0.119525 1.95399e-14
0.00947285 -0.106277 -2.22045e-14
0.00729447 -0.116232 3.37508e-14
0 0 0
0 0 0
0 0 0
0 0 0
0 0 0
0.00451333 -0.00972862 -0.000906769
0.00331284 -0.010092 -0.00199993
9.76996e-14 -0.0105023 -0.00111267
-0.00331284 -0.010092 -0.00199993
-0.00451333 -0.00972862 -0.000906769
      </DataArray> 
      <DataArray type="Float64" NumberOfComponents="3" Name="Velocity" format="ascii">
0 0 0
0 0 0
0 0 0
0 0 0
0 0 0
-0.00311734 -0.0021155 3.37316e-05
-0.00233693 -0.000558306 0.000290148
3.55875e-15 0.00398882 0.000175589
0.00233693 -0.000558306 0.000290148
0.00311734 -0.0021155 3.37316e-05
0.000150358 -0.000322627 0
0.00168071 -0.000285698 0
-1.4235e-14 -0.000740255 0
-0.00168071 -0.000285698 0
-0.000150358 -0.000322627 0
-0.0003852 -0.00185979 -7.1175e-15
-0.000630547 -0.000880372 5.51606e-14
1.24556e-14 -0.00213801 8.89688e-15
0.000630547 -0.000880372 8.89688e-16
0.0003852 -0.00185979 2.31319e-14
0 0 0
0 0 0
0 0 0
0 0 0
0 0 0
-0.00311734 -0.0021155 -3.37316e-05
-0.00233693 -0.000558306 -0.000290148
-3.15544e-30 0.00398882 -0.000175589
0.00233693 -0.000558306 -0.000290148
0.00311734 -0.0021155 -3.37316e-05
      </DataArray> 
      <DataArray type="Float64" NumberOfComponents="3" Name="Acceleration" format="ascii">
0 0 0
0 0 0
0 0 0
0 0 0
0 0 0
0.000178172 0.00452109 -6.74709e-05
4.598e-05 0.00442494 -0.000435294
-5.32907e-15 0.00473373 -0.000140669
-4.598e-05 0.00442494 -0.000435294
-0.000178172 0.00452109 -6.74709e-05
-0.000234089 0.00140038 0
0.000464115 0.000884859 0
2.13163e-14 0.00268678 0
-0.000464115 0.000884859 0
0.000234089 0.00140038 0
0.000670582 0.00191396 -2.4869e-14
-9.81663e-05 0.00112642 -3.55271e-14
-2.30926e-14 0.000212756 -5.32907e-15
9.81663e-05 0.00112642 1.68754e-14
-0.000670582 0.00191396 -8.88178e-15
0 0 0
0 0 0
0 0 0
0 0 0
0 0 0
0.000178172 0.00452109 6.74709e-05
4.598e-05 0.00442494 0.000435294
-6.21725e-14 0.00473373 0.000140669
-4.598e-05 0.00442494 0.000435294
-0.000178172 0.00452109 6.74709e-05
      </DataArray> 
    </PointData>
    <CellData>
    </CellData>
  </Piece>
  </UnstructuredGrid>
</VTKFile>
