<?xml version="1.0"?>
<VTKFile type="UnstructuredGrid">
  <UnstructuredGrid>
  <Piece NumberOfPoints="30"  NumberOfCells="85">
    <Points>
      <DataArray type="Float64" NumberOfComponents="3" format="ascii">
0 0 0
4 0 0
8 0 0
12 0 0
16 0 0
16.0035 2.99348 0.000447687
12.002 2.99571 0.000486135
8 2.99131 0.000698341
3.99798 2.99571 0.000486135
-0.00349486 2.99348 0.000447687
0.00308312 -0.0922823 8
4.00188 -0.0859597 8
8 -0.0975331 8
11.9981 -0.0859597 8
15.9969 -0.0922823 8
15.9958 2.90926 8
11.9933 2.91648 8
8 2.90491 8
4.0067 2.91648 8
0.00423953 2.90926 8
0 0 16
4 0 16
8 0 16
12 0 16
16 0 16
16.0035 2.99348 15.9996
12.002 2.99571 15.9995
8 2.99131 15.9993
3.99798 2.99571 15.9995
-0.00349486 2.99348 15.9996
      </DataArray>
    </Points>
    <Cells>
      <DataArray type="Int32" Name="connectivity" format="ascii">
0 1
1 2
2 3
3 4
4 5
5 6
6 7
7 8
8 9
9 0
8 1
7 2
6 3
10 11
11 12
12 13
13 14
14 15
15 16
16 17
17 18
18 19
19 10
18 11
17 12
16 13
20 21
21 22
22 23
23 24
24 25
25 26
26 27
27 28
28 29
20 29
28 21
22 27
23 26
20 10
10 0
29 19
19 9
21 11
28 18
11 1
18 8
22 12
27 17
12 2
17 7
23 13
26 16
13 3
16 6
24 14
25 15
15 5
14 4
25 23
29 21
19 11
9 1
15 13
5 3
8 2
6 2
18 12
16 12
28 22
26 22
19 20
19 0
21 18
18 1
22 17
17 2
23 16
16 3
15 24
15 4
20 18
18 0
24 16
16 4
      </DataArray>
      <DataArray type="Int32" Name="offsets" format="ascii">
2
4
6
8
10
12
14
16
18
20
22
24
26
28
30
32
34
36
38
40
42
44
46
48
50
52
54
56
58
60
62
64
66
68
70
72
74
76
78
80
82
84
86
88
90
92
94
96
98
100
102
104
106
108
110
112
114
116
118
120
122
124
126
128
130
132
134
136
138
140
142
144
146
148
150
152
154
156
158
160
162
164
166
168
170
      </DataArray>
      <DataArray type="UInt8" Name="types" format="ascii">
4
4
4
4
4
4
4
4
4
4
4
4
4
4
4
4
4
4
4
4
4
4
4
4
4
4
4
4
4
4
4
4
4
4
4
4
4
4
4
4
4
4
4
4
4
4
4
4
4
4
4
4
4
4
4
4
4
4
4
4
4
4
4
4
4
4
4
4
4
4
4
4
4
4
4
4
4
4
4
4
4
4
4
4
4
      </DataArray>
    </Cells>
    <PointData>
      <DataArray type="Float64" NumberOfComponents="3" Name="Displacement" format="ascii">
0 0 0
0 0 0
0 0 0
0 0 0
0 0 0
0.00349486 -0.00651631 0.000447687
0.00201632 -0.00428989 0.000486135
-1.33227e-14 -0.00868977 0.000698341
-0.00201632 -0.00428989 0.000486135
-0.00349486 -0.00651631 0.000447687
0.00308312 -0.0922823 0
0.00188267 -0.0859597 0
2.06057e-13 -0.0975331 0
-0.00188267 -0.0859597 0
-0.00308312 -0.0922823 0
-0.00423953 -0.0907353 9.23706e-14
-0.00669623 -0.083516 3.55271e-15
5.86198e-14 -0.0950857 -9.76996e-15
0.00669623 -0.083516 1.77636e-15
0.00423953 -0.0907353 -3.81917e-14
0 0 0
0 0 0
0 0 0
0 0 0
0 0 0
0.00349486 -0.00651631 -0.000447687
0.00201632 -0.00428989 -0.000486135
5.68434e-14 -0.00868977 -0.000698341
-0.00201632 -0.00428989 -0.000486135
-0.00349486 -0.00651631 -0.000447687
      </DataArray> 
      <DataArray type="Float64" NumberOfComponents="3" Name="Velocity" format="ascii">
0 0 0
0 0 0
0 0 0
0 0 0
0 0 0
0.00408644 0.00469331 6.91528e-05
0.00404517 -0.00182347 0.000918675
3.46978e-14 0.00538647 0.000117339
-0.00404517 -0.00182347 0.000918675
-0.00408644 0.00469331 6.91528e-05
0.000170531 -0.0059773 0
-8.0951e-05 -0.00682752 0
1.51247e-14 -0.00984502 0
8.0951e-05 -0.00682752 0
-0.000170531 -0.0059773 0
-0.0025573 -0.00383532 -7.1175e-15
-0.00216632 -0.00726902 5.33813e-14
-1.77938e-14 -0.010134 8.00719e-15
0.00216632 -0.00726902 2.13525e-14
0.0025573 -0.00383532 -8.00719e-15
0 0 0
0 0 0
0 0 0
0 0 0
0 0 0
0.00408644 0.00469331 -6.91528e-05
0.00404517 -0.00182347 -0.000918675
3.73669e-14 0.00538647 -0.000117339
-0.00404517 -0.00182347 -0.000918675
-0.00408644 0.00469331 -6.91528e-05
      </DataArray> 
      <DataArray type="Float64" NumberOfComponents="3" Name="Acceleration" format="ascii">
0 0 0
0 0 0
0 0 0
0 0 0
0 0 0
-0.000569904 0.000939434 8.03875e-07
4.83896e-05 -0.00110813 -2.71514e-05
2.93099e-14 0.00284616 -8.95328e-05
-4.83896e-05 -0.00110813 -2.71514e-05
0.000569904 0.000939434 8.03875e-07
-0.00077891 0.00134926 0
0.00111206 0.000470693 0
-3.28626e-14 0.00252637 0
-0.00111206 0.000470693 0
0.00077891 0.00134926 0
0.000185531 0.000759279 -3.55271e-14
-0.000278674 0.000593289 2.4869e-14
1.24345e-14 -0.000266967 -6.21725e-15
0.000278674 0.000593289 -1.95399e-14
-0.000185531 0.000759279 1.86517e-14
0 0 0
0 0 0
0 0 0
0 0 0
0 0 0
-0.000569904 0.000939434 -8.03875e-07
4.83896e-05 -0.00110813 2.71514e-05
-2.13163e-14 0.00284616 8.95328e-05
-4.83896e-05 -0.00110813 2.71514e-05
0.000569904 0.000939434 -8.03875e-07
      </DataArray> 
    </PointData>
    <CellData>
    </CellData>
  </Piece>
  </UnstructuredGrid>
</VTKFile>
