<?xml version="1.0"?>
<VTKFile type="UnstructuredGrid">
  <UnstructuredGrid>
  <Piece NumberOfPoints="30"  NumberOfCells="85">
    <Points>
      <DataArray type="Float64" NumberOfComponents="3" format="ascii">
0 0 0
4 0 0
8 0 0
12 0 0
16 0 0
15.9983 2.99079 -3.10272e-05
11.9979 2.99601 0.000131845
8 2.99391 0.000123843
4.00209 2.99601 0.000131845
0.00168659 2.99079 -3.10272e-05
0.00310388 -0.0262913 8
4.00195 -0.00665427 8
8 -0.00591635 8
11.998 -0.00665427 8
15.9969 -0.0262913 8
16.0062 2.97443 8
12.0031 2.99287 8
8 2.99379 8
3.99693 2.99287 8
-0.00620184 2.97443 8
0 0 16
4 0 16
8 0 16
12 0 16
16 0 16
15.9983 2.99079 16
11.9979 2.99601 15.9999
8 2.99391 15.9999
4.00209 2.99601 15.9999
0.00168659 2.99079 16
      </DataArray>
    </Points>
    <Cells>
      <DataArray type="Int32" Name="connectivity" format="ascii">
0 1
1 2
2 3
3 4
4 5
5 6
6 7
7 8
8 9
9 0
8 1
7 2
6 3
10 11
11 12
12 13
13 14
14 15
15 16
16 17
17 18
18 19
19 10
18 11
17 12
16 13
20 21
21 22
22 23
23 24
24 25
25 26
26 27
27 28
28 29
20 29
28 21
22 27
23 26
20 10
10 0
29 19
19 9
21 11
28 18
11 1
18 8
22 12
27 17
12 2
17 7
23 13
26 16
13 3
16 6
24 14
25 15
15 5
14 4
25 23
29 21
19 11
9 1
15 13
5 3
8 2
6 2
18 12
16 12
28 22
26 22
19 20
19 0
21 18
18 1
22 17
17 2
23 16
16 3
15 24
15 4
20 18
18 0
24 16
16 4
      </DataArray>
      <DataArray type="Int32" Name="offsets" format="ascii">
2
4
6
8
10
12
14
16
18
20
22
24
26
28
30
32
34
36
38
40
42
44
46
48
50
52
54
56
58
60
62
64
66
68
70
72
74
76
78
80
82
84
86
88
90
92
94
96
98
100
102
104
106
108
110
112
114
116
118
120
122
124
126
128
130
132
134
136
138
140
142
144
146
148
150
152
154
156
158
160
162
164
166
168
170
      </DataArray>
      <DataArray type="UInt8" Name="types" format="ascii">
4
4
4
4
4
4
4
4
4
4
4
4
4
4
4
4
4
4
4
4
4
4
4
4
4
4
4
4
4
4
4
4
4
4
4
4
4
4
4
4
4
4
4
4
4
4
4
4
4
4
4
4
4
4
4
4
4
4
4
4
4
4
4
4
4
4
4
4
4
4
4
4
4
4
4
4
4
4
4
4
4
4
4
4
4
      </DataArray>
    </Cells>
    <PointData>
      <DataArray type="Float64" NumberOfComponents="3" Name="Displacement" format="ascii">
0 0 0
0 0 0
0 0 0
0 0 0
0 0 0
-0.00168659 -0.00921027 -3.10272e-05
-0.00209164 -0.00399206 0.000131845
1.77636e-14 -0.00608981 0.000123843
0.00209164 -0.00399206 0.000131845
0.00168659 -0.00921027 -3.10272e-05
0.00310388 -0.0262913 0
0.00195322 -0.00665427 0
8.88178e-15 -0.00591635 0
-0.00195322 -0.00665427 0
-0.00310388 -0.0262913 0
0.00620184 -0.025569 -2.93099e-14
0.00307431 -0.0071345 6.39488e-14
6.03961e-14 -0.00621029 -5.9508e-14
-0.00307431 -0.0071345 2.84217e-14
-0.00620184 -0.025569 3.37508e-14
0 0 0
0 0 0
0 0 0
0 0 0
0 0 0
-0.00168659 -0.00921027 3.10272e-05
-0.00209164 -0.00399206 -0.000131845
-2.13163e-14 -0.00608981 -0.000123843
0.00209164 -0.00399206 -0.000131845
0.00168659 -0.00921027 3.10272e-05
      </DataArray> 
      <DataArray type="Float64" NumberOfComponents="3" Name="Velocity" format="ascii">
0 0 0
0 0 0
0 0 0
0 0 0
0 0 0
-0.00141866 0.000725579 -4.64853e-05
-0.00136595 0.00299169 0.00058163
1.77938e-14 -0.00606618 -9.00611e-05
0.00136595 0.00299169 0.00058163
0.00141866 0.000725579 -4.64853e-05
0.000143524 0.00247322 0
0.000720893 0.00515433 0
2.31319e-14 0.00855291 0
-0.000720893 0.00515433 0
-0.000143524 0.00247322 0
0.0016807 0.00339334 -2.58009e-14
0.00153335 0.00454886 -5.51606e-14
-3.55875e-15 0.00909363 6.22781e-15
-0.00153335 0.00454886 -1.77938e-15
-0.0016807 0.00339334 8.89688e-15
0 0 0
0 0 0
0 0 0
0 0 0
0 0 0
-0.00141866 0.000725579 4.64853e-05
-0.00136595 0.00299169 -0.00058163
5.33813e-15 -0.00606618 9.00611e-05
0.00136595 0.00299169 -0.00058163
0.00141866 0.000725579 4.64853e-05
      </DataArray> 
      <DataArray type="Float64" NumberOfComponents="3" Name="Acceleration" format="ascii">
0 0 0
0 0 0
0 0 0
0 0 0
0 0 0
0.00298307 0.00567982 1.92577e-05
0.00318464 -0.000422154 -4.02946e-05
-3.19744e-14 0.000123427 -4.86261e-05
-0.00318464 -0.000422154 -4.02946e-05
-0.00298307 0.00567982 1.92577e-05
-0.000720683 0.000637372 0
0.00103983 -0.00136433 0
8.88178e-15 0.000514318 0
-0.00103983 -0.00136433 0
0.000720683 0.000637372 0
-3.4522e-05 -0.00123426 -4.44089e-15
-0.000505995 -0.00140499 -1.42109e-14
1.42109e-14 -0.00232424 2.22045e-14
0.000505995 -0.00140499 -7.10543e-15
3.4522e-05 -0.00123426 -1.95399e-14
0 0 0
0 0 0
0 0 0
0 0 0
0 0 0
0.00298307 0.00567982 -1.92577e-05
0.00318464 -0.000422154 4.02946e-05
-8.66564e-27 0.000123427 4.86261e-05
-0.00318464 -0.000422154 4.02946e-05
-0.00298307 0.00567982 -1.92577e-05
      </DataArray> 
    </PointData>
    <CellData>
    </CellData>
  </Piece>
  </UnstructuredGrid>
</VTKFile>
