<?xml version="1.0"?>
<VTKFile type="UnstructuredGrid">
  <UnstructuredGrid>
  <Piece NumberOfPoints="30"  NumberOfCells="85">
    <Points>
      <DataArray type="Float64" NumberOfComponents="3" format="ascii">
0 0 0
4 0 0
8 0 0
12 0 0
16 0 0
15.9979 2.99082 0.000314123
11.9974 2.99697 -0.000989614
8 2.98882 0.000341342
4.00259 2.99697 -0.000989614
0.0021389 2.99082 0.000314123
0.00225709 -0.0798722 8
4.0027 -0.0708865 8
8 -0.0747442 8
11.9973 -0.0708865 8
15.9977 -0.0798722 8
16.0006 2.91907 8
11.997 2.93179 8
8 2.92513 8
4.003 2.93179 8
-0.000588678 2.91907 8
0 0 16
4 0 16
8 0 16
12 0 16
16 0 16
15.9979 2.99082 15.9997
11.9974 2.99697 16.001
8 2.98882 15.9997
4.00259 2.99697 16.001
0.0021389 2.99082 15.9997
      </DataArray>
    </Points>
    <Cells>
      <DataArray type="Int32" Name="connectivity" format="ascii">
0 1
1 2
2 3
3 4
4 5
5 6
6 7
7 8
8 9
9 0
8 1
7 2
6 3
10 11
11 12
12 13
13 14
14 15
15 16
16 17
17 18
18 19
19 10
18 11
17 12
16 13
20 21
21 22
22 23
23 24
24 25
25 26
26 27
27 28
28 29
20 29
28 21
22 27
23 26
20 10
10 0
29 19
19 9
21 11
28 18
11 1
18 8
22 12
27 17
12 2
17 7
23 13
26 16
13 3
16 6
24 14
25 15
15 5
14 4
25 23
29 21
19 11
9 1
15 13
5 3
8 2
6 2
18 12
16 12
28 22
26 22
19 20
19 0
21 18
18 1
22 17
17 2
23 16
16 3
15 24
15 4
20 18
18 0
24 16
16 4
      </DataArray>
      <DataArray type="Int32" Name="offsets" format="ascii">
2
4
6
8
10
12
14
16
18
20
22
24
26
28
30
32
34
36
38
40
42
44
46
48
50
52
54
56
58
60
62
64
66
68
70
72
74
76
78
80
82
84
86
88
90
92
94
96
98
100
102
104
106
108
110
112
114
116
118
120
122
124
126
128
130
132
134
136
138
140
142
144
146
148
150
152
154
156
158
160
162
164
166
168
170
      </DataArray>
      <DataArray type="UInt8" Name="types" format="ascii">
4
4
4
4
4
4
4
4
4
4
4
4
4
4
4
4
4
4
4
4
4
4
4
4
4
4
4
4
4
4
4
4
4
4
4
4
4
4
4
4
4
4
4
4
4
4
4
4
4
4
4
4
4
4
4
4
4
4
4
4
4
4
4
4
4
4
4
4
4
4
4
4
4
4
4
4
4
4
4
4
4
4
4
4
4
      </DataArray>
    </Cells>
    <PointData>
      <DataArray type="Float64" NumberOfComponents="3" Name="Displacement" format="ascii">
0 0 0
0 0 0
0 0 0
0 0 0
0 0 0
-0.0021389 -0.00918165 0.000314123
-0.00258554 -0.00302965 -0.000989614
-2.22045e-14 -0.0111789 0.000341342
0.00258554 -0.00302965 -0.000989614
0.0021389 -0.00918165 0.000314123
0.00225709 -0.0798722 0
0.0026998 -0.0708865 0
1.40332e-13 -0.0747442 0
-0.0026998 -0.0708865 0
-0.00225709 -0.0798722 0
0.000588678 -0.0809308 7.4607e-14
-0.00299901 -0.0682077 -5.77316e-14
9.05942e-14 -0.0748672 -2.30926e-14
0.00299901 -0.0682077 -5.06262e-14
-0.000588678 -0.0809308 3.55271e-15
0 0 0
0 0 0
0 0 0
0 0 0
0 0 0
-0.0021389 -0.00918165 -0.000314123
-0.00258554 -0.00302965 0.000989614
0 -0.0111789 -0.000341342
0.00258554 -0.00302965 0.000989614
0.0021389 -0.00918165 -0.000314123
      </DataArray> 
      <DataArray type="Float64" NumberOfComponents="3" Name="Velocity" format="ascii">
0 0 0
0 0 0
0 0 0
0 0 0
0 0 0
0.00153777 -0.0020325 6.4184e-05
0.000548877 0.000565373 0.000554571
-2.58009e-14 -0.00290159 0.000239054
-0.000548877 0.000565373 0.000554571
-0.00153777 -0.0020325 6.4184e-05
0.000654103 -0.00641173 0
-0.000734799 -0.00822012 0
4.98225e-14 -0.0129052 0
0.000734799 -0.00822012 0
-0.000654103 -0.00641173 0
-0.00226271 -0.00595252 2.49113e-14
-0.00152463 -0.00801336 8.00719e-15
-1.4235e-14 -0.0100501 5.33813e-15
0.00152463 -0.00801336 3.11391e-14
0.00226271 -0.00595252 -3.38081e-14
0 0 0
0 0 0
0 0 0
0 0 0
0 0 0
0.00153777 -0.0020325 -6.4184e-05
0.000548877 0.000565373 -0.000554571
1.95731e-14 -0.00290159 -0.000239054
-0.000548877 0.000565373 -0.000554571
-0.00153777 -0.0020325 -6.4184e-05
      </DataArray> 
      <DataArray type="Float64" NumberOfComponents="3" Name="Acceleration" format="ascii">
0 0 0
0 0 0
0 0 0
0 0 0
0 0 0
0.00311425 0.00577497 4.15649e-06
0.00344197 -0.00127666 0.000390637
3.10862e-14 0.00542784 -3.1975e-05
-0.00344197 -0.00127666 0.000390637
-0.00311425 0.00577497 4.15649e-06
0.000296158 -0.000915574 0
-0.00045932 0.000919539 0
-1.77636e-15 0.000528615 0
0.00045932 0.000919539 0
-0.000296158 -0.000915574 0
-0.000479616 0.00135433 3.55271e-15
-0.000361923 0.000149794 2.04281e-14
-1.59872e-14 0.000183245 8.88178e-15
0.000361923 0.000149794 9.76996e-15
0.000479616 0.00135433 7.10543e-15
0 0 0
0 0 0
0 0 0
0 0 0
0 0 0
0.00311425 0.00577497 -4.15649e-06
0.00344197 -0.00127666 -0.000390637
3.90799e-14 0.00542784 3.1975e-05
-0.00344197 -0.00127666 -0.000390637
-0.00311425 0.00577497 -4.15649e-06
      </DataArray> 
    </PointData>
    <CellData>
    </CellData>
  </Piece>
  </UnstructuredGrid>
</VTKFile>
