<?xml version="1.0"?>
<VTKFile type="UnstructuredGrid">
  <UnstructuredGrid>
  <Piece NumberOfPoints="30"  NumberOfCells="85">
    <Points>
      <DataArray type="Float64" NumberOfComponents="3" format="ascii">
0 0 0
4 0 0
8 0 0
12 0 0
16 0 0
16.0082 2.99745 0.000336465
12.0066 2.99351 -0.000140908
8 2.98846 0.00100412
3.99337 2.99351 -0.000140908
-0.00816174 2.99745 0.000336465
0.000682181 -0.0829542 8
4.00023 -0.0975887 8
8 -0.114703 8
11.9998 -0.0975887 8
15.9993 -0.0829542 8
15.9879 2.9188 8
11.9889 2.90545 8
8 2.88807 8
4.01113 2.90545 8
0.0120562 2.9188 8
0 0 16
4 0 16
8 0 16
12 0 16
16 0 16
16.0082 2.99745 15.9997
12.0066 2.99351 16.0001
8 2.98846 15.999
3.99337 2.99351 16.0001
-0.00816174 2.99745 15.9997
      </DataArray>
    </Points>
    <Cells>
      <DataArray type="Int32" Name="connectivity" format="ascii">
0 1
1 2
2 3
3 4
4 5
5 6
6 7
7 8
8 9
9 0
8 1
7 2
6 3
10 11
11 12
12 13
13 14
14 15
15 16
16 17
17 18
18 19
19 10
18 11
17 12
16 13
20 21
21 22
22 23
23 24
24 25
25 26
26 27
27 28
28 29
20 29
28 21
22 27
23 26
20 10
10 0
29 19
19 9
21 11
28 18
11 1
18 8
22 12
27 17
12 2
17 7
23 13
26 16
13 3
16 6
24 14
25 15
15 5
14 4
25 23
29 21
19 11
9 1
15 13
5 3
8 2
6 2
18 12
16 12
28 22
26 22
19 20
19 0
21 18
18 1
22 17
17 2
23 16
16 3
15 24
15 4
20 18
18 0
24 16
16 4
      </DataArray>
      <DataArray type="Int32" Name="offsets" format="ascii">
2
4
6
8
10
12
14
16
18
20
22
24
26
28
30
32
34
36
38
40
42
44
46
48
50
52
54
56
58
60
62
64
66
68
70
72
74
76
78
80
82
84
86
88
90
92
94
96
98
100
102
104
106
108
110
112
114
116
118
120
122
124
126
128
130
132
134
136
138
140
142
144
146
148
150
152
154
156
158
160
162
164
166
168
170
      </DataArray>
      <DataArray type="UInt8" Name="types" format="ascii">
4
4
4
4
4
4
4
4
4
4
4
4
4
4
4
4
4
4
4
4
4
4
4
4
4
4
4
4
4
4
4
4
4
4
4
4
4
4
4
4
4
4
4
4
4
4
4
4
4
4
4
4
4
4
4
4
4
4
4
4
4
4
4
4
4
4
4
4
4
4
4
4
4
4
4
4
4
4
4
4
4
4
4
4
4
      </DataArray>
    </Cells>
    <PointData>
      <DataArray type="Float64" NumberOfComponents="3" Name="Displacement" format="ascii">
0 0 0
0 0 0
0 0 0
0 0 0
0 0 0
0.00816174 -0.00255283 0.000336465
0.00662694 -0.00648544 -0.000140908
5.32907e-14 -0.0115438 0.00100412
-0.00662694 -0.00648544 -0.000140908
-0.00816174 -0.00255283 0.000336465
0.000682181 -0.0829542 0
0.000230242 -0.0975887 0
1.3145e-13 -0.114703 0
-0.000230242 -0.0975887 0
-0.000682181 -0.0829542 0
-0.0120562 -0.0811971 -2.84217e-14
-0.0111346 -0.0945539 -1.59872e-14
6.57252e-14 -0.111932 -1.5099e-14
0.0111346 -0.0945539 -3.55271e-14
0.0120562 -0.0811971 2.13163e-14
0 0 0
0 0 0
0 0 0
0 0 0
0 0 0
0.00816174 -0.00255283 -0.000336465
0.00662694 -0.00648544 0.000140908
2.13163e-14 -0.0115438 -0.00100412
-0.00662694 -0.00648544 0.000140908
-0.00816174 -0.00255283 -0.000336465
      </DataArray> 
      <DataArray type="Float64" NumberOfComponents="3" Name="Velocity" format="ascii">
0 0 0
0 0 0
0 0 0
0 0 0
0 0 0
0.000975817 -0.000678147 9.18425e-05
5.74304e-05 0.00238856 -7.49764e-05
6.31089e-30 0.00222377 0.000100822
-5.74304e-05 0.00238856 -7.49764e-05
-0.000975817 -0.000678147 9.18425e-05
-0.00184836 -0.00346858 0
-0.000327301 -0.00756471 0
8.89688e-15 -0.00734727 0
0.000327301 -0.00756471 0
0.00184836 -0.00346858 0
-0.000552969 -0.0044221 -1.77938e-14
-0.000890132 -0.00665095 -1.4235e-14
7.1175e-15 -0.00767745 -3.11391e-14
0.000890132 -0.00665095 -5.33813e-15
0.000552969 -0.0044221 -5.33813e-15
0 0 0
0 0 0
0 0 0
0 0 0
0 0 0
0.000975817 -0.000678147 -9.18425e-05
5.74304e-05 0.00238856 7.49764e-05
-1.60144e-14 0.00222377 -0.000100822
-5.74304e-05 0.00238856 7.49764e-05
-0.000975817 -0.000678147 -9.18425e-05
      </DataArray> 
      <DataArray type="Float64" NumberOfComponents="3" Name="Acceleration" format="ascii">
0 0 0
0 0 0
0 0 0
0 0 0
0 0 0
-0.0035537 -0.0052156 2.83116e-05
-0.00375024 -1.06481e-05 0.000202753
-6.39488e-14 0.00583062 -0.00014663
0.00375024 -1.06481e-05 0.000202753
0.0035537 -0.0052156 2.83116e-05
-0.000271394 0.00155196 0
-8.70767e-06 0.00200898 0
-1.42109e-14 0.00277135 0
8.70767e-06 0.00200898 0
0.000271394 0.00155196 0
0.000201663 -0.000503463 7.10543e-15
-0.000199148 0.000743895 -8.88178e-15
1.95399e-14 0.000159832 2.66454e-15
0.000199148 0.000743895 1.06581e-14
-0.000201663 -0.000503463 -1.06581e-14
0 0 0
0 0 0
0 0 0
0 0 0
0 0 0
-0.0035537 -0.0052156 -2.83116e-05
-0.00375024 -1.06481e-05 -0.000202753
-3.55271e-15 0.00583062 0.00014663
0.00375024 -1.06481e-05 -0.000202753
0.0035537 -0.0052156 -2.83116e-05
      </DataArray> 
    </PointData>
    <CellData>
    </CellData>
  </Piece>
  </UnstructuredGrid>
</VTKFile>
