<?xml version="1.0"?>
<VTKFile type="UnstructuredGrid">
  <UnstructuredGrid>
  <Piece NumberOfPoints="30"  NumberOfCells="85">
    <Points>
      <DataArray type="Float64" NumberOfComponents="3" format="ascii">
0 0 0
4 0 0
8 0 0
12 0 0
16 0 0
16.0071 2.98783 0.000122303
12.0034 2.99455 0.000246087
8 2.99247 -9.40603e-05
3.99658 2.99455 0.000246087
-0.00707419 2.98783 0.000122303
-6.88251e-05 -0.0162215 8
4.00155 0.000609601 8
8 0.0118028 8
11.9985 0.000609601 8
16.0001 -0.0162215 8
16.0086 2.98194 8
12.0052 3.00036 8
8 3.00908 8
3.9948 3.00036 8
-0.00857467 2.98194 8
0 0 16
4 0 16
8 0 16
12 0 16
16 0 16
16.0071 2.98783 15.9999
12.0034 2.99455 15.9998
8 2.99247 16.0001
3.99658 2.99455 15.9998
-0.00707419 2.98783 15.9999
      </DataArray>
    </Points>
    <Cells>
      <DataArray type="Int32" Name="connectivity" format="ascii">
0 1
1 2
2 3
3 4
4 5
5 6
6 7
7 8
8 9
9 0
8 1
7 2
6 3
10 11
11 12
12 13
13 14
14 15
15 16
16 17
17 18
18 19
19 10
18 11
17 12
16 13
20 21
21 22
22 23
23 24
24 25
25 26
26 27
27 28
28 29
20 29
28 21
22 27
23 26
20 10
10 0
29 19
19 9
21 11
28 18
11 1
18 8
22 12
27 17
12 2
17 7
23 13
26 16
13 3
16 6
24 14
25 15
15 5
14 4
25 23
29 21
19 11
9 1
15 13
5 3
8 2
6 2
18 12
16 12
28 22
26 22
19 20
19 0
21 18
18 1
22 17
17 2
23 16
16 3
15 24
15 4
20 18
18 0
24 16
16 4
      </DataArray>
      <DataArray type="Int32" Name="offsets" format="ascii">
2
4
6
8
10
12
14
16
18
20
22
24
26
28
30
32
34
36
38
40
42
44
46
48
50
52
54
56
58
60
62
64
66
68
70
72
74
76
78
80
82
84
86
88
90
92
94
96
98
100
102
104
106
108
110
112
114
116
118
120
122
124
126
128
130
132
134
136
138
140
142
144
146
148
150
152
154
156
158
160
162
164
166
168
170
      </DataArray>
      <DataArray type="UInt8" Name="types" format="ascii">
4
4
4
4
4
4
4
4
4
4
4
4
4
4
4
4
4
4
4
4
4
4
4
4
4
4
4
4
4
4
4
4
4
4
4
4
4
4
4
4
4
4
4
4
4
4
4
4
4
4
4
4
4
4
4
4
4
4
4
4
4
4
4
4
4
4
4
4
4
4
4
4
4
4
4
4
4
4
4
4
4
4
4
4
4
      </DataArray>
    </Cells>
    <PointData>
      <DataArray type="Float64" NumberOfComponents="3" Name="Displacement" format="ascii">
0 0 0
0 0 0
0 0 0
0 0 0
0 0 0
0.00707419 -0.0121702 0.000122303
0.00341785 -0.00545203 0.000246087
1.95399e-14 -0.00753457 -9.40603e-05
-0.00341785 -0.00545203 0.000246087
-0.00707419 -0.0121702 0.000122303
-6.88251e-05 -0.0162215 0
0.00154909 0.000609601 0
2.30926e-14 0.0118028 0
-0.00154909 0.000609601 0
6.88251e-05 -0.0162215 0
0.00857467 -0.0180608 3.90799e-14
0.00520048 0.000360365 -4.44089e-15
4.9738e-14 0.00907747 2.13163e-14
-0.00520048 0.000360365 7.10543e-15
-0.00857467 -0.0180608 2.84217e-14
0 0 0
0 0 0
0 0 0
0 0 0
0 0 0
0.00707419 -0.0121702 -0.000122303
0.00341785 -0.00545203 -0.000246087
6.39488e-14 -0.00753457 9.40603e-05
-0.00341785 -0.00545203 -0.000246087
-0.00707419 -0.0121702 -0.000122303
      </DataArray> 
      <DataArray type="Float64" NumberOfComponents="3" Name="Velocity" format="ascii">
0 0 0
0 0 0
0 0 0
0 0 0
0 0 0
8.65838e-05 0.00343898 2.85063e-05
0.000661576 0.000378034 -0.000198116
-2.13525e-14 -0.00588211 6.97641e-06
-0.000661576 0.000378034 -0.000198116
-8.65838e-05 0.00343898 2.85063e-05
-0.00113245 0.000957521 0
0.000549753 0.00198238 0
3.02494e-14 0.00548143 0
-0.000549753 0.00198238 0
0.00113245 0.000957521 0
0.00171876 -0.000398824 3.55875e-15
0.000683164 0.00237635 1.33453e-14
-5.33813e-15 0.00250965 -1.06763e-14
-0.000683164 0.00237635 1.77938e-15
-0.00171876 -0.000398824 -3.55875e-15
0 0 0
0 0 0
0 0 0
0 0 0
0 0 0
8.65838e-05 0.00343898 -2.85063e-05
0.000661576 0.000378034 0.000198116
-1.06763e-14 -0.00588211 -6.97641e-06
-0.000661576 0.000378034 0.000198116
-8.65838e-05 0.00343898 -2.85063e-05
      </DataArray> 
      <DataArray type="Float64" NumberOfComponents="3" Name="Acceleration" format="ascii">
0 0 0
0 0 0
0 0 0
0 0 0
0 0 0
-0.00194125 0.00672209 -4.43929e-05
0.000371086 -0.00027643 -7.6044e-05
-2.66454e-14 0.00163851 4.41489e-05
-0.000371086 -0.00027643 -7.6044e-05
0.00194125 0.00672209 -4.43929e-05
0.00108341 -0.00158284 0
-0.000573743 -0.000840072 0
8.88178e-15 -0.00251035 0
0.000573743 -0.000840072 0
-0.00108341 -0.00158284 0
-0.000481031 -0.000653186 -1.42109e-14
-0.000182154 -0.00128275 -8.88178e-16
-2.4869e-14 -0.00183153 -3.55271e-15
0.000182154 -0.00128275 -3.55271e-15
0.000481031 -0.000653186 -1.06581e-14
0 0 0
0 0 0
0 0 0
0 0 0
0 0 0
-0.00194125 0.00672209 4.43929e-05
0.000371086 -0.00027643 7.6044e-05
-1.06581e-14 0.00163851 -4.41489e-05
-0.000371086 -0.00027643 7.6044e-05
0.00194125 0.00672209 4.43929e-05
      </DataArray> 
    </PointData>
    <CellData>
    </CellData>
  </Piece>
  </UnstructuredGrid>
</VTKFile>
