<?xml version="1.0"?>
<VTKFile type="UnstructuredGrid">
  <UnstructuredGrid>
  <Piece NumberOfPoints="30"  NumberOfCells="85">
    <Points>
      <DataArray type="Float64" NumberOfComponents="3" format="ascii">
0 0 0
4 0 0
8 0 0
12 0 0
16 0 0
16.0081 2.99545 0.000595945
12.0057 2.99534 0.000675758
8 2.9896 0.00119507
3.99434 2.99534 0.000675758
-0.00809383 2.99545 0.000595945
-6.07203e-05 -0.0955555 8
4.00202 -0.109558 8
8 -0.133677 8
11.998 -0.109558 8
16.0001 -0.0955555 8
15.985 2.90456 8
11.9852 2.89245 8
8 2.86572 8
4.01484 2.89245 8
0.014999 2.90456 8
0 0 16
4 0 16
8 0 16
12 0 16
16 0 16
16.0081 2.99545 15.9994
12.0057 2.99534 15.9993
8 2.9896 15.9988
3.99434 2.99534 15.9993
-0.00809383 2.99545 15.9994
      </DataArray>
    </Points>
    <Cells>
      <DataArray type="Int32" Name="connectivity" format="ascii">
0 1
1 2
2 3
3 4
4 5
5 6
6 7
7 8
8 9
9 0
8 1
7 2
6 3
10 11
11 12
12 13
13 14
14 15
15 16
16 17
17 18
18 19
19 10
18 11
17 12
16 13
20 21
21 22
22 23
23 24
24 25
25 26
26 27
27 28
28 29
20 29
28 21
22 27
23 26
20 10
10 0
29 19
19 9
21 11
28 18
11 1
18 8
22 12
27 17
12 2
17 7
23 13
26 16
13 3
16 6
24 14
25 15
15 5
14 4
25 23
29 21
19 11
9 1
15 13
5 3
8 2
6 2
18 12
16 12
28 22
26 22
19 20
19 0
21 18
18 1
22 17
17 2
23 16
16 3
15 24
15 4
20 18
18 0
24 16
16 4
      </DataArray>
      <DataArray type="Int32" Name="offsets" format="ascii">
2
4
6
8
10
12
14
16
18
20
22
24
26
28
30
32
34
36
38
40
42
44
46
48
50
52
54
56
58
60
62
64
66
68
70
72
74
76
78
80
82
84
86
88
90
92
94
96
98
100
102
104
106
108
110
112
114
116
118
120
122
124
126
128
130
132
134
136
138
140
142
144
146
148
150
152
154
156
158
160
162
164
166
168
170
      </DataArray>
      <DataArray type="UInt8" Name="types" format="ascii">
4
4
4
4
4
4
4
4
4
4
4
4
4
4
4
4
4
4
4
4
4
4
4
4
4
4
4
4
4
4
4
4
4
4
4
4
4
4
4
4
4
4
4
4
4
4
4
4
4
4
4
4
4
4
4
4
4
4
4
4
4
4
4
4
4
4
4
4
4
4
4
4
4
4
4
4
4
4
4
4
4
4
4
4
4
      </DataArray>
    </Cells>
    <PointData>
      <DataArray type="Float64" NumberOfComponents="3" Name="Displacement" format="ascii">
0 0 0
0 0 0
0 0 0
0 0 0
0 0 0
0.00809383 -0.00454892 0.000595945
0.00566074 -0.00465835 0.000675758
-1.77636e-14 -0.0104041 0.00119507
-0.00566074 -0.00465835 0.000675758
-0.00809383 -0.00454892 0.000595945
-6.07203e-05 -0.0955555 0
0.0020226 -0.109558 0
-2.22045e-14 -0.133677 0
-0.0020226 -0.109558 0
6.07203e-05 -0.0955555 0
-0.014999 -0.0954412 1.77636e-14
-0.0148414 -0.10755 8.88178e-15
-5.32907e-15 -0.134278 -3.55271e-15
0.0148414 -0.10755 -3.55271e-15
0.014999 -0.0954412 3.01981e-14
0 0 0
0 0 0
0 0 0
0 0 0
0 0 0
0.00809383 -0.00454892 -0.000595945
0.00566074 -0.00465835 -0.000675758
-2.75335e-14 -0.0104041 -0.00119507
-0.00566074 -0.00465835 -0.000675758
-0.00809383 -0.00454892 -0.000595945
      </DataArray> 
      <DataArray type="Float64" NumberOfComponents="3" Name="Velocity" format="ascii">
0 0 0
0 0 0
0 0 0
0 0 0
0 0 0
-0.00022316 -0.00335129 -2.96078e-06
-0.00019863 -0.0038278 -8.60837e-05
1.77938e-15 0.00403672 -6.61441e-05
0.00019863 -0.0038278 -8.60837e-05
0.00022316 -0.00335129 -2.96078e-06
0.000615648 0.00191286 0
0.00104208 0.00268197 0
1.69041e-14 0.00269539 0
-0.00104208 0.00268197 0
-0.000615648 0.00191286 0
0.000468453 0.000644494 3.55875e-15
0.000823696 0.00284538 -1.77938e-15
1.77938e-15 0.00501059 8.89688e-15
-0.000823696 0.00284538 -7.88861e-31
-0.000468453 0.000644494 5.33813e-15
0 0 0
0 0 0
0 0 0
0 0 0
0 0 0
-0.00022316 -0.00335129 2.96078e-06
-0.00019863 -0.0038278 8.60837e-05
-8.00719e-15 0.00403672 6.61441e-05
0.00019863 -0.0038278 8.60837e-05
0.00022316 -0.00335129 2.96078e-06
      </DataArray> 
      <DataArray type="Float64" NumberOfComponents="3" Name="Acceleration" format="ascii">
0 0 0
0 0 0
0 0 0
0 0 0
0 0 0
-0.00361994 -0.00277414 -1.66756e-05
-0.00271529 -0.00161789 4.99867e-06
3.55271e-15 0.00464313 -8.9922e-05
0.00271529 -0.00161789 4.99867e-06
0.00361994 -0.00277414 -1.66756e-05
0.00137641 0.0001319 0
-0.00133634 0.000863847 0
9.76996e-15 0.00120202 0
0.00133634 0.000863847 0
-0.00137641 0.0001319 0
0.000426342 0.00108374 -3.55271e-15
0.000475271 0.00141359 1.77636e-15
-5.32907e-15 0.00242904 3.62876e-29
-0.000475271 0.00141359 -4.25985e-29
-0.000426342 0.00108374 -5.32907e-15
0 0 0
0 0 0
0 0 0
0 0 0
0 0 0
-0.00361994 -0.00277414 1.66756e-05
-0.00271529 -0.00161789 -4.99867e-06
4.44089e-15 0.00464313 8.9922e-05
0.00271529 -0.00161789 -4.99867e-06
0.00361994 -0.00277414 1.66756e-05
      </DataArray> 
    </PointData>
    <CellData>
    </CellData>
  </Piece>
  </UnstructuredGrid>
</VTKFile>
