<?xml version="1.0"?>
<VTKFile type="UnstructuredGrid">
  <UnstructuredGrid>
  <Piece NumberOfPoints="30"  NumberOfCells="85">
    <Points>
      <DataArray type="Float64" NumberOfComponents="3" format="ascii">
0 0 0
4 0 0
8 0 0
12 0 0
16 0 0
16.0084 2.99709 3.42061e-05
12.0064 2.99451 0.00113511
8 2.9937 2.73645e-05
3.9936 2.99451 0.00113511
-0.00838859 2.99709 3.42061e-05
0.0031298 -0.0214838 8
4.00233 0.00343142 8
8 0.0112939 8
11.9977 0.00343142 8
15.9969 -0.0214838 8
16.0104 2.97801 8
12.0067 3.00226 8
8 3.01033 8
3.99329 3.00226 8
-0.0104249 2.97801 8
0 0 16
4 0 16
8 0 16
12 0 16
16 0 16
16.0084 2.99709 16
12.0064 2.99451 15.9989
8 2.9937 16
3.9936 2.99451 15.9989
-0.00838859 2.99709 16
      </DataArray>
    </Points>
    <Cells>
      <DataArray type="Int32" Name="connectivity" format="ascii">
0 1
1 2
2 3
3 4
4 5
5 6
6 7
7 8
8 9
9 0
8 1
7 2
6 3
10 11
11 12
12 13
13 14
14 15
15 16
16 17
17 18
18 19
19 10
18 11
17 12
16 13
20 21
21 22
22 23
23 24
24 25
25 26
26 27
27 28
28 29
20 29
28 21
22 27
23 26
20 10
10 0
29 19
19 9
21 11
28 18
11 1
18 8
22 12
27 17
12 2
17 7
23 13
26 16
13 3
16 6
24 14
25 15
15 5
14 4
25 23
29 21
19 11
9 1
15 13
5 3
8 2
6 2
18 12
16 12
28 22
26 22
19 20
19 0
21 18
18 1
22 17
17 2
23 16
16 3
15 24
15 4
20 18
18 0
24 16
16 4
      </DataArray>
      <DataArray type="Int32" Name="offsets" format="ascii">
2
4
6
8
10
12
14
16
18
20
22
24
26
28
30
32
34
36
38
40
42
44
46
48
50
52
54
56
58
60
62
64
66
68
70
72
74
76
78
80
82
84
86
88
90
92
94
96
98
100
102
104
106
108
110
112
114
116
118
120
122
124
126
128
130
132
134
136
138
140
142
144
146
148
150
152
154
156
158
160
162
164
166
168
170
      </DataArray>
      <DataArray type="UInt8" Name="types" format="ascii">
4
4
4
4
4
4
4
4
4
4
4
4
4
4
4
4
4
4
4
4
4
4
4
4
4
4
4
4
4
4
4
4
4
4
4
4
4
4
4
4
4
4
4
4
4
4
4
4
4
4
4
4
4
4
4
4
4
4
4
4
4
4
4
4
4
4
4
4
4
4
4
4
4
4
4
4
4
4
4
4
4
4
4
4
4
      </DataArray>
    </Cells>
    <PointData>
      <DataArray type="Float64" NumberOfComponents="3" Name="Displacement" format="ascii">
0 0 0
0 0 0
0 0 0
0 0 0
0 0 0
0.00838859 -0.00290905 3.42061e-05
0.00640458 -0.00548534 0.00113511
-4.35207e-14 -0.00630176 2.73645e-05
-0.00640458 -0.00548534 0.00113511
-0.00838859 -0.00290905 3.42061e-05
0.0031298 -0.0214838 0
0.00233128 0.00343142 0
1.04805e-13 0.0112939 0
-0.00233128 0.00343142 0
-0.0031298 -0.0214838 0
0.0104249 -0.021994 -3.81917e-14
0.00671395 0.0022581 3.37508e-14
4.44089e-14 0.0103286 0
-0.00671395 0.0022581 -3.10862e-14
-0.0104249 -0.021994 -1.24345e-14
0 0 0
0 0 0
0 0 0
0 0 0
0 0 0
0.00838859 -0.00290905 -3.42061e-05
0.00640458 -0.00548534 -0.00113511
1.24345e-14 -0.00630176 -2.73645e-05
-0.00640458 -0.00548534 -0.00113511
-0.00838859 -0.00290905 -3.42061e-05
      </DataArray> 
      <DataArray type="Float64" NumberOfComponents="3" Name="Velocity" format="ascii">
0 0 0
0 0 0
0 0 0
0 0 0
0 0 0
0.00136607 -0.00196685 3.57044e-05
-7.18261e-05 0.00207156 0.000418765
5.42709e-14 0.0061154 -0.000118661
7.18261e-05 0.00207156 0.000418765
-0.00136607 -0.00196685 3.57044e-05
-0.000291971 -2.3547e-05 0
-0.000412938 0.000726744 0
-7.88861e-31 0.00288621 0
0.000412938 0.000726744 0
0.000291971 -2.3547e-05 0
0.000313316 0.00204373 4.35947e-14
0.000559337 0.00190419 -3.20288e-14
-7.65131e-14 0.00468932 -3.55875e-15
-0.000559337 0.00190419 -1.51247e-14
-0.000313316 0.00204373 1.77938e-15
0 0 0
0 0 0
0 0 0
0 0 0
0 0 0
0.00136607 -0.00196685 -3.57044e-05
-7.18261e-05 0.00207156 -0.000418765
3.55875e-14 0.0061154 0.000118661
7.18261e-05 0.00207156 -0.000418765
-0.00136607 -0.00196685 -3.57044e-05
      </DataArray> 
      <DataArray type="Float64" NumberOfComponents="3" Name="Acceleration" format="ascii">
0 0 0
0 0 0
0 0 0
0 0 0
0 0 0
-0.00387396 -0.00484889 -3.77081e-06
-0.00349842 -0.00095886 -0.000353406
5.24025e-14 0.000348938 -1.11519e-06
0.00349842 -0.00095886 -0.000353406
0.00387396 -0.00484889 -3.77081e-06
-0.000468144 -0.00041984 0
0.000747369 -0.00183304 0
-5.32907e-15 -0.000532396 0
-0.000747369 -0.00183304 0
0.000468144 -0.00041984 0
-0.000195449 -0.000798482 4.44089e-15
-0.000813212 -0.00133974 -3.37508e-14
-1.59872e-14 -0.00267956 1.06581e-14
0.000813212 -0.00133974 2.22045e-14
0.000195449 -0.000798482 1.95399e-14
0 0 0
0 0 0
0 0 0
0 0 0
0 0 0
-0.00387396 -0.00484889 3.77081e-06
-0.00349842 -0.00095886 0.000353406
-1.24345e-14 0.000348938 1.11519e-06
0.00349842 -0.00095886 0.000353406
0.00387396 -0.00484889 3.77081e-06
      </DataArray> 
    </PointData>
    <CellData>
    </CellData>
  </Piece>
  </UnstructuredGrid>
</VTKFile>
