<?xml version="1.0"?>
<VTKFile type="UnstructuredGrid">
  <UnstructuredGrid>
  <Piece NumberOfPoints="30"  NumberOfCells="85">
    <Points>
      <DataArray type="Float64" NumberOfComponents="3" format="ascii">
0 0 0
4 0 0
8 0 0
12 0 0
16 0 0
16.0072 2.99381 9.61835e-05
12.0051 2.99322 3.69221e-05
8 2.99722 -1.78788e-05
3.99491 2.99322 3.69221e-05
-0.00721009 2.99381 9.61835e-05
0.00421046 -0.0357926 8
4.00372 -0.0122695 8
8 -0.00670965 8
11.9963 -0.0122695 8
15.9958 -0.0357926 8
16.0068 2.9634 8
12.0033 2.98863 8
8 2.99307 8
3.99671 2.98863 8
-0.00680795 2.9634 8
0 0 16
4 0 16
8 0 16
12 0 16
16 0 16
16.0072 2.99381 15.9999
12.0051 2.99322 16
8 2.99722 16
3.99491 2.99322 16
-0.00721009 2.99381 15.9999
      </DataArray>
    </Points>
    <Cells>
      <DataArray type="Int32" Name="connectivity" format="ascii">
0 1
1 2
2 3
3 4
4 5
5 6
6 7
7 8
8 9
9 0
8 1
7 2
6 3
10 11
11 12
12 13
13 14
14 15
15 16
16 17
17 18
18 19
19 10
18 11
17 12
16 13
20 21
21 22
22 23
23 24
24 25
25 26
26 27
27 28
28 29
20 29
28 21
22 27
23 26
20 10
10 0
29 19
19 9
21 11
28 18
11 1
18 8
22 12
27 17
12 2
17 7
23 13
26 16
13 3
16 6
24 14
25 15
15 5
14 4
25 23
29 21
19 11
9 1
15 13
5 3
8 2
6 2
18 12
16 12
28 22
26 22
19 20
19 0
21 18
18 1
22 17
17 2
23 16
16 3
15 24
15 4
20 18
18 0
24 16
16 4
      </DataArray>
      <DataArray type="Int32" Name="offsets" format="ascii">
2
4
6
8
10
12
14
16
18
20
22
24
26
28
30
32
34
36
38
40
42
44
46
48
50
52
54
56
58
60
62
64
66
68
70
72
74
76
78
80
82
84
86
88
90
92
94
96
98
100
102
104
106
108
110
112
114
116
118
120
122
124
126
128
130
132
134
136
138
140
142
144
146
148
150
152
154
156
158
160
162
164
166
168
170
      </DataArray>
      <DataArray type="UInt8" Name="types" format="ascii">
4
4
4
4
4
4
4
4
4
4
4
4
4
4
4
4
4
4
4
4
4
4
4
4
4
4
4
4
4
4
4
4
4
4
4
4
4
4
4
4
4
4
4
4
4
4
4
4
4
4
4
4
4
4
4
4
4
4
4
4
4
4
4
4
4
4
4
4
4
4
4
4
4
4
4
4
4
4
4
4
4
4
4
4
4
      </DataArray>
    </Cells>
    <PointData>
      <DataArray type="Float64" NumberOfComponents="3" Name="Displacement" format="ascii">
0 0 0
0 0 0
0 0 0
0 0 0
0 0 0
0.00721009 -0.00619204 9.61835e-05
0.00509044 -0.00678121 3.69221e-05
1.77636e-15 -0.00277941 -1.78788e-05
-0.00509044 -0.00678121 3.69221e-05
-0.00721009 -0.00619204 9.61835e-05
0.00421046 -0.0357926 0
0.0037206 -0.0122695 0
1.77636e-14 -0.00670965 0
-0.0037206 -0.0122695 0
-0.00421046 -0.0357926 0
0.00680795 -0.0365972 1.77636e-15
0.00328631 -0.0113722 -1.77636e-15
7.10543e-15 -0.00692953 -2.66454e-15
-0.00328631 -0.0113722 -6.21725e-15
-0.00680795 -0.0365972 -8.88178e-15
0 0 0
0 0 0
0 0 0
0 0 0
0 0 0
0.00721009 -0.00619204 -9.61835e-05
0.00509044 -0.00678121 -3.69221e-05
3.55271e-15 -0.00277941 1.78788e-05
-0.00509044 -0.00678121 -3.69221e-05
-0.00721009 -0.00619204 -9.61835e-05
      </DataArray> 
      <DataArray type="Float64" NumberOfComponents="3" Name="Velocity" format="ascii">
0 0 0
0 0 0
0 0 0
0 0 0
0 0 0
-0.00182137 -0.00554774 3.16825e-05
-0.00264974 0.00146481 -1.27711e-05
8.89688e-15 0.00516862 4.16153e-05
0.00264974 0.00146481 -1.27711e-05
0.00182137 -0.00554774 3.16825e-05
-0.00126164 -0.00404345 0
0.000572413 -0.00698252 0
7.88861e-31 -0.00662023 0
-0.000572413 -0.00698252 0
0.00126164 -0.00404345 0
-0.000344689 -0.00558827 -5.33813e-15
-0.00083307 -0.00612068 -3.55875e-15
1.77938e-15 -0.0083315 2.66906e-15
0.00083307 -0.00612068 8.89688e-16
0.000344689 -0.00558827 1.77938e-15
0 0 0
0 0 0
0 0 0
0 0 0
0 0 0
-0.00182137 -0.00554774 -3.16825e-05
-0.00264974 0.00146481 1.27711e-05
3.55875e-15 0.00516862 -4.16153e-05
0.00264974 0.00146481 1.27711e-05
0.00182137 -0.00554774 -3.16825e-05
      </DataArray> 
      <DataArray type="Float64" NumberOfComponents="3" Name="Acceleration" format="ascii">
0 0 0
0 0 0
0 0 0
0 0 0
0 0 0
-0.00256768 -0.000529072 -1.42466e-05
-0.00185775 0.0006681 -1.10174e-05
-1.77636e-15 -0.00335208 7.57516e-06
0.00185775 0.0006681 -1.10174e-05
0.00256768 -0.000529072 -1.42466e-05
-0.000271836 -0.000683127 0
0.000291909 -0.000797217 0
4.25985e-29 -0.000178866 0
-0.000291909 -0.000797217 0
0.000271836 -0.000683127 0
0.000107779 6.12645e-05 -1.77636e-15
-0.000304519 -0.00142047 1.77636e-15
3.55271e-15 -0.00233176 8.88178e-16
0.000304519 -0.00142047 8.88178e-16
-0.000107779 6.12645e-05 1.77636e-15
0 0 0
0 0 0
0 0 0
0 0 0
0 0 0
-0.00256768 -0.000529072 1.42466e-05
-0.00185775 0.0006681 1.10174e-05
-3.55271e-15 -0.00335208 -7.57516e-06
0.00185775 0.0006681 1.10174e-05
0.00256768 -0.000529072 1.42466e-05
      </DataArray> 
    </PointData>
    <CellData>
    </CellData>
  </Piece>
  </UnstructuredGrid>
</VTKFile>
