<?xml version="1.0"?>
<VTKFile type="UnstructuredGrid">
  <UnstructuredGrid>
  <Piece NumberOfPoints="30"  NumberOfCells="85">
    <Points>
      <DataArray type="Float64" NumberOfComponents="3" format="ascii">
0 0 0
4 0 0
8 0 0
12 0 0
16 0 0
16.0037 2.99409 0.000516084
12.0021 2.99597 0.000629357
8 2.99218 0.00102312
3.99788 2.99597 0.000629357
-0.00365494 2.99409 0.000516084
-0.00139046 -0.0986592 8
3.99973 -0.114741 8
8 -0.133187 8
12.0003 -0.114741 8
16.0014 -0.0986592 8
15.9869 2.90263 8
11.9875 2.88797 8
8 2.86919 8
4.01253 2.88797 8
0.0131082 2.90263 8
0 0 16
4 0 16
8 0 16
12 0 16
16 0 16
16.0037 2.99409 15.9995
12.0021 2.99597 15.9994
8 2.99218 15.999
3.99788 2.99597 15.9994
-0.00365494 2.99409 15.9995
      </DataArray>
    </Points>
    <Cells>
      <DataArray type="Int32" Name="connectivity" format="ascii">
0 1
1 2
2 3
3 4
4 5
5 6
6 7
7 8
8 9
9 0
8 1
7 2
6 3
10 11
11 12
12 13
13 14
14 15
15 16
16 17
17 18
18 19
19 10
18 11
17 12
16 13
20 21
21 22
22 23
23 24
24 25
25 26
26 27
27 28
28 29
20 29
28 21
22 27
23 26
20 10
10 0
29 19
19 9
21 11
28 18
11 1
18 8
22 12
27 17
12 2
17 7
23 13
26 16
13 3
16 6
24 14
25 15
15 5
14 4
25 23
29 21
19 11
9 1
15 13
5 3
8 2
6 2
18 12
16 12
28 22
26 22
19 20
19 0
21 18
18 1
22 17
17 2
23 16
16 3
15 24
15 4
20 18
18 0
24 16
16 4
      </DataArray>
      <DataArray type="Int32" Name="offsets" format="ascii">
2
4
6
8
10
12
14
16
18
20
22
24
26
28
30
32
34
36
38
40
42
44
46
48
50
52
54
56
58
60
62
64
66
68
70
72
74
76
78
80
82
84
86
88
90
92
94
96
98
100
102
104
106
108
110
112
114
116
118
120
122
124
126
128
130
132
134
136
138
140
142
144
146
148
150
152
154
156
158
160
162
164
166
168
170
      </DataArray>
      <DataArray type="UInt8" Name="types" format="ascii">
4
4
4
4
4
4
4
4
4
4
4
4
4
4
4
4
4
4
4
4
4
4
4
4
4
4
4
4
4
4
4
4
4
4
4
4
4
4
4
4
4
4
4
4
4
4
4
4
4
4
4
4
4
4
4
4
4
4
4
4
4
4
4
4
4
4
4
4
4
4
4
4
4
4
4
4
4
4
4
4
4
4
4
4
4
      </DataArray>
    </Cells>
    <PointData>
      <DataArray type="Float64" NumberOfComponents="3" Name="Displacement" format="ascii">
0 0 0
0 0 0
0 0 0
0 0 0
0 0 0
0.00365494 -0.00591373 0.000516084
0.00212015 -0.00403179 0.000629357
1.95399e-14 -0.00782051 0.00102312
-0.00212015 -0.00403179 0.000629357
-0.00365494 -0.00591373 0.000516084
-0.00139046 -0.0986592 0
-0.000270191 -0.114741 0
7.28306e-14 -0.133187 0
0.000270191 -0.114741 0
0.00139046 -0.0986592 0
-0.0131082 -0.0973712 6.39488e-14
-0.0125329 -0.112026 -7.4607e-14
2.30926e-14 -0.130807 -1.15463e-14
0.0125329 -0.112026 -5.50671e-14
0.0131082 -0.0973712 1.95399e-14
0 0 0
0 0 0
0 0 0
0 0 0
0 0 0
0.00365494 -0.00591373 -0.000516084
0.00212015 -0.00403179 -0.000629357
-1.5099e-14 -0.00782051 -0.00102312
-0.00212015 -0.00403179 -0.000629357
-0.00365494 -0.00591373 -0.000516084
      </DataArray> 
      <DataArray type="Float64" NumberOfComponents="3" Name="Velocity" format="ascii">
0 0 0
0 0 0
0 0 0
0 0 0
0 0 0
0.00529013 0.00293756 -5.06551e-06
0.00378837 0.00260193 0.000557696
-1.60144e-14 -0.00576915 -7.1678e-05
-0.00378837 0.00260193 0.000557696
-0.00529013 0.00293756 -5.06551e-06
0.000138874 -0.000766076 0
0.000414824 0.000649284 0
-5.33813e-15 0.000740375 0
-0.000414824 0.000649284 0
-0.000138874 -0.000766076 0
0.000985532 -0.0028522 1.77938e-15
0.000389328 -0.000787519 2.31319e-14
8.89688e-15 -0.00158313 4.44844e-15
-0.000389328 -0.000787519 9.46633e-30
-0.000985532 -0.0028522 1.06763e-14
0 0 0
0 0 0
0 0 0
0 0 0
0 0 0
0.00529013 0.00293756 5.06551e-06
0.00378837 0.00260193 -0.000557696
-3.11391e-14 -0.00576915 7.1678e-05
-0.00378837 0.00260193 -0.000557696
-0.00529013 0.00293756 5.06551e-06
      </DataArray> 
      <DataArray type="Float64" NumberOfComponents="3" Name="Acceleration" format="ascii">
0 0 0
0 0 0
0 0 0
0 0 0
0 0 0
-0.000847316 0.000164601 1.01892e-05
-7.64122e-05 -0.00139416 3.61661e-05
-6.92779e-14 0.00193776 -2.81944e-05
7.64122e-05 -0.00139416 3.61661e-05
0.000847316 0.000164601 1.01892e-05
0.000757637 0.00115307 0
-0.000317 0.00167063 0
1.77636e-15 0.00236682 0
0.000317 0.00167063 0
-0.000757637 0.00115307 0
0.000218575 0.00036886 -3.55271e-14
-0.000129498 0.00155564 -3.55271e-15
3.37508e-14 0.000984918 1.33227e-14
0.000129498 0.00155564 1.59872e-14
-0.000218575 0.00036886 -8.88178e-15
0 0 0
0 0 0
0 0 0
0 0 0
0 0 0
-0.000847316 0.000164601 -1.01892e-05
-7.64122e-05 -0.00139416 -3.61661e-05
-1.5099e-14 0.00193776 2.81944e-05
7.64122e-05 -0.00139416 -3.61661e-05
0.000847316 0.000164601 -1.01892e-05
      </DataArray> 
    </PointData>
    <CellData>
    </CellData>
  </Piece>
  </UnstructuredGrid>
</VTKFile>
