<?xml version="1.0"?>
<VTKFile type="UnstructuredGrid">
  <UnstructuredGrid>
  <Piece NumberOfPoints="30"  NumberOfCells="85">
    <Points>
      <DataArray type="Float64" NumberOfComponents="3" format="ascii">
0 0 0
4 0 0
8 0 0
12 0 0
16 0 0
15.9988 2.99962 4.71453e-06
12.0002 2.99536 -1.97975e-05
8 2.99501 3.85309e-05
3.99979 2.99536 -1.97975e-05
0.00116076 2.99962 4.71453e-06
0.00227274 -0.0424581 8
4.00225 -0.0321045 8
8 -0.0370744 8
11.9978 -0.0321045 8
15.9977 -0.0424581 8
16.0017 2.95547 8
11.9982 2.96781 8
8 2.95858 8
4.00184 2.96781 8
-0.00170597 2.95547 8
0 0 16
4 0 16
8 0 16
12 0 16
16 0 16
15.9988 2.99962 16
12.0002 2.99536 16
8 2.99501 16
3.99979 2.99536 16
0.00116076 2.99962 16
      </DataArray>
    </Points>
    <Cells>
      <DataArray type="Int32" Name="connectivity" format="ascii">
0 1
1 2
2 3
3 4
4 5
5 6
6 7
7 8
8 9
9 0
8 1
7 2
6 3
10 11
11 12
12 13
13 14
14 15
15 16
16 17
17 18
18 19
19 10
18 11
17 12
16 13
20 21
21 22
22 23
23 24
24 25
25 26
26 27
27 28
28 29
20 29
28 21
22 27
23 26
20 10
10 0
29 19
19 9
21 11
28 18
11 1
18 8
22 12
27 17
12 2
17 7
23 13
26 16
13 3
16 6
24 14
25 15
15 5
14 4
25 23
29 21
19 11
9 1
15 13
5 3
8 2
6 2
18 12
16 12
28 22
26 22
19 20
19 0
21 18
18 1
22 17
17 2
23 16
16 3
15 24
15 4
20 18
18 0
24 16
16 4
      </DataArray>
      <DataArray type="Int32" Name="offsets" format="ascii">
2
4
6
8
10
12
14
16
18
20
22
24
26
28
30
32
34
36
38
40
42
44
46
48
50
52
54
56
58
60
62
64
66
68
70
72
74
76
78
80
82
84
86
88
90
92
94
96
98
100
102
104
106
108
110
112
114
116
118
120
122
124
126
128
130
132
134
136
138
140
142
144
146
148
150
152
154
156
158
160
162
164
166
168
170
      </DataArray>
      <DataArray type="UInt8" Name="types" format="ascii">
4
4
4
4
4
4
4
4
4
4
4
4
4
4
4
4
4
4
4
4
4
4
4
4
4
4
4
4
4
4
4
4
4
4
4
4
4
4
4
4
4
4
4
4
4
4
4
4
4
4
4
4
4
4
4
4
4
4
4
4
4
4
4
4
4
4
4
4
4
4
4
4
4
4
4
4
4
4
4
4
4
4
4
4
4
      </DataArray>
    </Cells>
    <PointData>
      <DataArray type="Float64" NumberOfComponents="3" Name="Displacement" format="ascii">
0 0 0
0 0 0
0 0 0
0 0 0
0 0 0
-0.00116076 -0.000375344 4.71453e-06
0.000212765 -0.00463829 -1.97975e-05
-2.22045e-14 -0.00499145 3.85309e-05
-0.000212765 -0.00463829 -1.97975e-05
0.00116076 -0.000375344 4.71453e-06
0.00227274 -0.0424581 0
0.00224901 -0.0321045 0
8.88178e-14 -0.0370744 0
-0.00224901 -0.0321045 0
-0.00227274 -0.0424581 0
0.00170597 -0.0445254 -1.95399e-14
-0.00184404 -0.032195 2.30926e-14
1.35003e-13 -0.0414217 3.90799e-14
0.00184404 -0.032195 3.73035e-14
-0.00170597 -0.0445254 -3.28626e-14
0 0 0
0 0 0
0 0 0
0 0 0
0 0 0
-0.00116076 -0.000375344 -4.71453e-06
0.000212765 -0.00463829 1.97975e-05
-2.57572e-14 -0.00499145 -3.85309e-05
-0.000212765 -0.00463829 1.97975e-05
0.00116076 -0.000375344 -4.71453e-06
      </DataArray> 
      <DataArray type="Float64" NumberOfComponents="3" Name="Velocity" format="ascii">
0 0 0
0 0 0
0 0 0
0 0 0
0 0 0
-0.000211364 -0.00385967 1.19678e-05
-1.68787e-05 -0.00377364 0.000598917
-1.51247e-14 0.00598384 -9.082e-05
1.68787e-05 -0.00377364 0.000598917
0.000211364 -0.00385967 1.19678e-05
0.00133329 -0.00546876 0
-0.000505325 -0.0085424 0
-1.06763e-14 -0.0127506 0
0.000505325 -0.0085424 0
-0.00133329 -0.00546876 0
-0.00214449 -0.00476887 7.1175e-15
-0.0015481 -0.0077408 3.73669e-14
-1.06763e-14 -0.0117518 -8.89688e-15
0.0015481 -0.0077408 6.31089e-30
0.00214449 -0.00476887 -1.15659e-14
0 0 0
0 0 0
0 0 0
0 0 0
0 0 0
-0.000211364 -0.00385967 -1.19678e-05
-1.68787e-05 -0.00377364 -0.000598917
-1.33453e-14 0.00598384 9.082e-05
1.68787e-05 -0.00377364 -0.000598917
0.000211364 -0.00385967 -1.19678e-05
      </DataArray> 
      <DataArray type="Float64" NumberOfComponents="3" Name="Acceleration" format="ascii">
0 0 0
0 0 0
0 0 0
0 0 0
0 0 0
0.00158138 -0.00516121 4.41172e-05
5.49792e-05 -0.000323063 2.10669e-05
-1.15463e-14 -0.00102466 1.75955e-05
-5.49792e-05 -0.000323063 2.10669e-05
-0.00158138 -0.00516121 4.41172e-05
-4.37636e-06 -0.00179315 0
0.000235689 -0.00101222 0
-3.55271e-15 -0.00177964 0
-0.000235689 -0.00101222 0
4.37636e-06 -0.00179315 0
-0.000276376 0.000629797 2.30926e-14
0.000240839 -0.000520333 1.24345e-14
-4.61853e-14 0.000858099 -1.77636e-14
-0.000240839 -0.000520333 -1.24345e-14
0.000276376 0.000629797 1.68754e-14
0 0 0
0 0 0
0 0 0
0 0 0
0 0 0
0.00158138 -0.00516121 -4.41172e-05
5.49792e-05 -0.000323063 -2.10669e-05
-1.5099e-14 -0.00102466 -1.75955e-05
-5.49792e-05 -0.000323063 -2.10669e-05
-0.00158138 -0.00516121 -4.41172e-05
      </DataArray> 
    </PointData>
    <CellData>
    </CellData>
  </Piece>
  </UnstructuredGrid>
</VTKFile>
