<?xml version="1.0"?>
<VTKFile type="UnstructuredGrid">
  <UnstructuredGrid>
  <Piece NumberOfPoints="30"  NumberOfCells="85">
    <Points>
      <DataArray type="Float64" NumberOfComponents="3" format="ascii">
0 0 0
4 0 0
8 0 0
12 0 0
16 0 0
15.999 2.99705 0.000746898
11.9998 2.99539 0.000703001
8 2.99969 0.000911186
4.00021 2.99539 0.000703001
0.000955925 2.99705 0.000746898
0.0038064 -0.114329 8
4.00306 -0.112048 8
8 -0.123592 8
11.9969 -0.112048 8
15.9962 -0.114329 8
15.9911 2.88893 8
11.9887 2.89182 8
8 2.87541 8
4.01126 2.89182 8
0.00890466 2.88893 8
0 0 16
4 0 16
8 0 16
12 0 16
16 0 16
15.999 2.99705 15.9993
11.9998 2.99539 15.9993
8 2.99969 15.9991
4.00021 2.99539 15.9993
0.000955925 2.99705 15.9993
      </DataArray>
    </Points>
    <Cells>
      <DataArray type="Int32" Name="connectivity" format="ascii">
0 1
1 2
2 3
3 4
4 5
5 6
6 7
7 8
8 9
9 0
8 1
7 2
6 3
10 11
11 12
12 13
13 14
14 15
15 16
16 17
17 18
18 19
19 10
18 11
17 12
16 13
20 21
21 22
22 23
23 24
24 25
25 26
26 27
27 28
28 29
20 29
28 21
22 27
23 26
20 10
10 0
29 19
19 9
21 11
28 18
11 1
18 8
22 12
27 17
12 2
17 7
23 13
26 16
13 3
16 6
24 14
25 15
15 5
14 4
25 23
29 21
19 11
9 1
15 13
5 3
8 2
6 2
18 12
16 12
28 22
26 22
19 20
19 0
21 18
18 1
22 17
17 2
23 16
16 3
15 24
15 4
20 18
18 0
24 16
16 4
      </DataArray>
      <DataArray type="Int32" Name="offsets" format="ascii">
2
4
6
8
10
12
14
16
18
20
22
24
26
28
30
32
34
36
38
40
42
44
46
48
50
52
54
56
58
60
62
64
66
68
70
72
74
76
78
80
82
84
86
88
90
92
94
96
98
100
102
104
106
108
110
112
114
116
118
120
122
124
126
128
130
132
134
136
138
140
142
144
146
148
150
152
154
156
158
160
162
164
166
168
170
      </DataArray>
      <DataArray type="UInt8" Name="types" format="ascii">
4
4
4
4
4
4
4
4
4
4
4
4
4
4
4
4
4
4
4
4
4
4
4
4
4
4
4
4
4
4
4
4
4
4
4
4
4
4
4
4
4
4
4
4
4
4
4
4
4
4
4
4
4
4
4
4
4
4
4
4
4
4
4
4
4
4
4
4
4
4
4
4
4
4
4
4
4
4
4
4
4
4
4
4
4
      </DataArray>
    </Cells>
    <PointData>
      <DataArray type="Float64" NumberOfComponents="3" Name="Displacement" format="ascii">
0 0 0
0 0 0
0 0 0
0 0 0
0 0 0
-0.000955925 -0.00294855 0.000746898
-0.000214413 -0.00461043 0.000703001
-2.04281e-14 -0.000313361 0.000911186
0.000214413 -0.00461043 0.000703001
0.000955925 -0.00294855 0.000746898
0.0038064 -0.114329 0
0.00306122 -0.112048 0
-5.06262e-14 -0.123592 0
-0.00306122 -0.112048 0
-0.0038064 -0.114329 0
-0.00890466 -0.111074 -1.77636e-15
-0.0112593 -0.108181 -9.76996e-15
-3.37508e-14 -0.124594 -2.66454e-15
0.0112593 -0.108181 -1.06581e-14
0.00890466 -0.111074 -1.59872e-14
0 0 0
0 0 0
0 0 0
0 0 0
0 0 0
-0.000955925 -0.00294855 -0.000746898
-0.000214413 -0.00461043 -0.000703001
-2.22045e-14 -0.000313361 -0.000911186
0.000214413 -0.00461043 -0.000703001
0.000955925 -0.00294855 -0.000746898
      </DataArray> 
      <DataArray type="Float64" NumberOfComponents="3" Name="Velocity" format="ascii">
0 0 0
0 0 0
0 0 0
0 0 0
0 0 0
0.00425698 0.00329755 3.51547e-05
0.00278703 0.00323162 -1.45551e-05
8.00719e-15 0.00187722 -8.80558e-05
-0.00278703 0.00323162 -1.45551e-05
-0.00425698 0.00329755 3.51547e-05
-0.000356088 -0.00290211 0
0.000217387 -0.0010843 0
1.15659e-14 0.001257 0
-0.000217387 -0.0010843 0
0.000356088 -0.00290211 0
0.00101065 -0.00153747 8.89688e-15
0.000320936 9.39267e-05 -4.44844e-15
-3.55875e-15 0.00178819 -2.66906e-15
-0.000320936 9.39267e-05 1.77938e-15
-0.00101065 -0.00153747 1.57772e-30
0 0 0
0 0 0
0 0 0
0 0 0
0 0 0
0.00425698 0.00329755 -3.51547e-05
0.00278703 0.00323162 1.45551e-05
6.22781e-15 0.00187722 8.80558e-05
-0.00278703 0.00323162 1.45551e-05
-0.00425698 0.00329755 -3.51547e-05
      </DataArray> 
      <DataArray type="Float64" NumberOfComponents="3" Name="Acceleration" format="ascii">
0 0 0
0 0 0
0 0 0
0 0 0
0 0 0
0.00177026 -0.0020972 -3.61663e-06
0.000843368 -0.000248123 -6.69283e-06
-2.66454e-15 -0.00593598 2.15167e-05
-0.000843368 -0.000248123 -6.69283e-06
-0.00177026 -0.0020972 -3.61663e-06
-0.000480864 0.00284632 0
0.000154048 0.00151864 0
2.66454e-15 -0.00043424 0
-0.000154048 0.00151864 0
0.000480864 0.00284632 0
7.44599e-05 0.000595974 -1.77636e-15
0.000633809 0.00135736 8.88178e-16
-1.77636e-15 0.00231565 4.44089e-15
-0.000633809 0.00135736 3.55271e-15
-7.44599e-05 0.000595974 -1.77636e-15
0 0 0
0 0 0
0 0 0
0 0 0
0 0 0
0.00177026 -0.0020972 3.61663e-06
0.000843368 -0.000248123 6.69283e-06
6.21725e-15 -0.00593598 -2.15167e-05
-0.000843368 -0.000248123 6.69283e-06
-0.00177026 -0.0020972 3.61663e-06
      </DataArray> 
    </PointData>
    <CellData>
    </CellData>
  </Piece>
  </UnstructuredGrid>
</VTKFile>
