<?xml version="1.0"?>
<VTKFile type="UnstructuredGrid">
  <UnstructuredGrid>
  <Piece NumberOfPoints="30"  NumberOfCells="85">
    <Points>
      <DataArray type="Float64" NumberOfComponents="3" format="ascii">
0 0 0
4 0 0
8 0 0
12 0 0
16 0 0
15.9998 2.99424 0.000573012
12.0001 2.99396 0.000563516
8 2.98852 0.000427869
3.99992 2.99396 0.000563516
0.000225583 2.99424 0.000573012
0.00156958 -0.0994291 8
4.00164 -0.0919259 8
8 -0.0978333 8
11.9984 -0.0919259 8
15.9984 -0.0994291 8
15.9981 2.90361 8
11.9945 2.91227 8
8 2.90425 8
4.00554 2.91227 8
0.00186215 2.90361 8
0 0 16
4 0 16
8 0 16
12 0 16
16 0 16
15.9998 2.99424 15.9994
12.0001 2.99396 15.9994
8 2.98852 15.9996
3.99992 2.99396 15.9994
0.000225583 2.99424 15.9994
      </DataArray>
    </Points>
    <Cells>
      <DataArray type="Int32" Name="connectivity" format="ascii">
0 1
1 2
2 3
3 4
4 5
5 6
6 7
7 8
8 9
9 0
8 1
7 2
6 3
10 11
11 12
12 13
13 14
14 15
15 16
16 17
17 18
18 19
19 10
18 11
17 12
16 13
20 21
21 22
22 23
23 24
24 25
25 26
26 27
27 28
28 29
20 29
28 21
22 27
23 26
20 10
10 0
29 19
19 9
21 11
28 18
11 1
18 8
22 12
27 17
12 2
17 7
23 13
26 16
13 3
16 6
24 14
25 15
15 5
14 4
25 23
29 21
19 11
9 1
15 13
5 3
8 2
6 2
18 12
16 12
28 22
26 22
19 20
19 0
21 18
18 1
22 17
17 2
23 16
16 3
15 24
15 4
20 18
18 0
24 16
16 4
      </DataArray>
      <DataArray type="Int32" Name="offsets" format="ascii">
2
4
6
8
10
12
14
16
18
20
22
24
26
28
30
32
34
36
38
40
42
44
46
48
50
52
54
56
58
60
62
64
66
68
70
72
74
76
78
80
82
84
86
88
90
92
94
96
98
100
102
104
106
108
110
112
114
116
118
120
122
124
126
128
130
132
134
136
138
140
142
144
146
148
150
152
154
156
158
160
162
164
166
168
170
      </DataArray>
      <DataArray type="UInt8" Name="types" format="ascii">
4
4
4
4
4
4
4
4
4
4
4
4
4
4
4
4
4
4
4
4
4
4
4
4
4
4
4
4
4
4
4
4
4
4
4
4
4
4
4
4
4
4
4
4
4
4
4
4
4
4
4
4
4
4
4
4
4
4
4
4
4
4
4
4
4
4
4
4
4
4
4
4
4
4
4
4
4
4
4
4
4
4
4
4
4
      </DataArray>
    </Cells>
    <PointData>
      <DataArray type="Float64" NumberOfComponents="3" Name="Displacement" format="ascii">
0 0 0
0 0 0
0 0 0
0 0 0
0 0 0
-0.000225583 -0.00576349 0.000573012
8.42651e-05 -0.00604065 0.000563516
-2.22045e-14 -0.011482 0.000427869
-8.42651e-05 -0.00604065 0.000563516
0.000225583 -0.00576349 0.000573012
0.00156958 -0.0994291 0
0.00163976 -0.0919259 0
4.08562e-14 -0.0978333 0
-0.00163976 -0.0919259 0
-0.00156958 -0.0994291 0
-0.00186215 -0.0963904 7.10543e-15
-0.00554303 -0.0877264 -1.06581e-14
3.19744e-14 -0.0957453 -2.04281e-14
0.00554303 -0.0877264 -3.55271e-15
0.00186215 -0.0963904 8.88178e-15
0 0 0
0 0 0
0 0 0
0 0 0
0 0 0
-0.000225583 -0.00576349 -0.000573012
8.42651e-05 -0.00604065 -0.000563516
-5.86198e-14 -0.011482 -0.000427869
-8.42651e-05 -0.00604065 -0.000563516
0.000225583 -0.00576349 -0.000573012
      </DataArray> 
      <DataArray type="Float64" NumberOfComponents="3" Name="Velocity" format="ascii">
0 0 0
0 0 0
0 0 0
0 0 0
0 0 0
0.00101651 -0.00522643 -0.000105174
0.000505535 -0.00472919 0.000131486
-2.22422e-14 -0.00237866 8.22089e-06
-0.000505535 -0.00472919 0.000131486
-0.00101651 -0.00522643 -0.000105174
0.000276014 0.00692191 0
-0.000286978 0.0065871 0
-9.46633e-30 0.0090264 0
0.000286978 0.0065871 0
-0.000276014 0.00692191 0
0.000613191 0.00693093 1.77938e-15
0.000789496 0.00572795 7.1175e-15
-1.77938e-14 0.00714534 -9.78656e-15
-0.000789496 0.00572795 -7.88861e-31
-0.000613191 0.00693093 3.55875e-15
0 0 0
0 0 0
0 0 0
0 0 0
0 0 0
0.00101651 -0.00522643 0.000105174
0.000505535 -0.00472919 -0.000131486
-2.13525e-14 -0.00237866 -8.22089e-06
-0.000505535 -0.00472919 -0.000131486
-0.00101651 -0.00522643 0.000105174
      </DataArray> 
      <DataArray type="Float64" NumberOfComponents="3" Name="Acceleration" format="ascii">
0 0 0
0 0 0
0 0 0
0 0 0
0 0 0
0.00197672 0.00110088 -2.09596e-05
0.00117291 0.00112253 -4.4005e-05
2.75335e-14 0.00575145 8.00551e-06
-0.00117291 0.00112253 -4.4005e-05
-0.00197672 0.00110088 -2.09596e-05
5.05447e-05 0.00265155 0
5.73815e-05 0.00199434 0
5.32907e-15 0.00177241 0
-5.73815e-05 0.00199434 0
-5.05447e-05 0.00265155 0
-0.000623755 -7.44781e-06 7.10543e-15
-0.000197123 0.000425181 3.55271e-15
-1.87749e-28 -7.35819e-05 4.44089e-15
0.000197123 0.000425181 -1.89327e-28
0.000623755 -7.44781e-06 5.32907e-15
0 0 0
0 0 0
0 0 0
0 0 0
0 0 0
0.00197672 0.00110088 2.09596e-05
0.00117291 0.00112253 4.4005e-05
4.08562e-14 0.00575145 -8.00551e-06
-0.00117291 0.00112253 4.4005e-05
-0.00197672 0.00110088 2.09596e-05
      </DataArray> 
    </PointData>
    <CellData>
    </CellData>
  </Piece>
  </UnstructuredGrid>
</VTKFile>
