<?xml version="1.0"?>
<VTKFile type="UnstructuredGrid">
  <UnstructuredGrid>
  <Piece NumberOfPoints="30"  NumberOfCells="85">
    <Points>
      <DataArray type="Float64" NumberOfComponents="3" format="ascii">
0 0 0
4 0 0
8 0 0
12 0 0
16 0 0
16.0034 2.99193 4.35072e-05
12.0026 2.99069 5.01998e-05
8 2.99097 -8.85256e-05
3.99743 2.99069 5.01998e-05
-0.00337566 2.99193 4.35072e-05
0.00145094 -0.0120278 8
4.00267 0.000506997 8
8 0.00217146 8
11.9973 0.000506997 8
15.9985 -0.0120278 8
16.0052 2.98521 8
12.0031 2.99911 8
8 3.0011 8
3.99688 2.99911 8
-0.0052267 2.98521 8
0 0 16
4 0 16
8 0 16
12 0 16
16 0 16
16.0034 2.99193 16
12.0026 2.99069 15.9999
8 2.99097 16.0001
3.99743 2.99069 15.9999
-0.00337566 2.99193 16
      </DataArray>
    </Points>
    <Cells>
      <DataArray type="Int32" Name="connectivity" format="ascii">
0 1
1 2
2 3
3 4
4 5
5 6
6 7
7 8
8 9
9 0
8 1
7 2
6 3
10 11
11 12
12 13
13 14
14 15
15 16
16 17
17 18
18 19
19 10
18 11
17 12
16 13
20 21
21 22
22 23
23 24
24 25
25 26
26 27
27 28
28 29
20 29
28 21
22 27
23 26
20 10
10 0
29 19
19 9
21 11
28 18
11 1
18 8
22 12
27 17
12 2
17 7
23 13
26 16
13 3
16 6
24 14
25 15
15 5
14 4
25 23
29 21
19 11
9 1
15 13
5 3
8 2
6 2
18 12
16 12
28 22
26 22
19 20
19 0
21 18
18 1
22 17
17 2
23 16
16 3
15 24
15 4
20 18
18 0
24 16
16 4
      </DataArray>
      <DataArray type="Int32" Name="offsets" format="ascii">
2
4
6
8
10
12
14
16
18
20
22
24
26
28
30
32
34
36
38
40
42
44
46
48
50
52
54
56
58
60
62
64
66
68
70
72
74
76
78
80
82
84
86
88
90
92
94
96
98
100
102
104
106
108
110
112
114
116
118
120
122
124
126
128
130
132
134
136
138
140
142
144
146
148
150
152
154
156
158
160
162
164
166
168
170
      </DataArray>
      <DataArray type="UInt8" Name="types" format="ascii">
4
4
4
4
4
4
4
4
4
4
4
4
4
4
4
4
4
4
4
4
4
4
4
4
4
4
4
4
4
4
4
4
4
4
4
4
4
4
4
4
4
4
4
4
4
4
4
4
4
4
4
4
4
4
4
4
4
4
4
4
4
4
4
4
4
4
4
4
4
4
4
4
4
4
4
4
4
4
4
4
4
4
4
4
4
      </DataArray>
    </Cells>
    <PointData>
      <DataArray type="Float64" NumberOfComponents="3" Name="Displacement" format="ascii">
0 0 0
0 0 0
0 0 0
0 0 0
0 0 0
0.00337566 -0.00807073 4.35072e-05
0.00257379 -0.00931493 5.01998e-05
-1.06581e-14 -0.00902831 -8.85256e-05
-0.00257379 -0.00931493 5.01998e-05
-0.00337566 -0.00807073 4.35072e-05
0.00145094 -0.0120278 0
0.00267278 0.000506997 0
-3.64153e-14 0.00217146 0
-0.00267278 0.000506997 0
-0.00145094 -0.0120278 0
0.0052267 -0.0147909 -3.55271e-15
0.00311527 -0.000893739 -1.77636e-15
-3.28626e-14 0.00109685 0
-0.00311527 -0.000893739 -1.06581e-14
-0.0052267 -0.0147909 -8.88178e-15
0 0 0
0 0 0
0 0 0
0 0 0
0 0 0
0.00337566 -0.00807073 -4.35072e-05
0.00257379 -0.00931493 -5.01998e-05
-1.68754e-14 -0.00902831 8.85256e-05
-0.00257379 -0.00931493 -5.01998e-05
-0.00337566 -0.00807073 -4.35072e-05
      </DataArray> 
      <DataArray type="Float64" NumberOfComponents="3" Name="Velocity" format="ascii">
0 0 0
0 0 0
0 0 0
0 0 0
0 0 0
0.00171388 -0.00527046 8.86374e-06
0.000621018 -0.00273389 -1.39224e-05
-8.89688e-15 0.00524901 -2.22662e-05
-0.000621018 -0.00273389 -1.39224e-05
-0.00171388 -0.00527046 8.86374e-06
0.000677702 0.000603709 0
-0.000573984 -0.00359297 0
-8.89688e-16 -0.00342559 0
0.000573984 -0.00359297 0
-0.000677702 0.000603709 0
-0.00157508 -0.000412902 7.1175e-15
-0.00117781 -0.0040002 -5.33813e-15
-6.22781e-15 -0.00514123 -1.06763e-14
0.00117781 -0.0040002 1.77938e-15
0.00157508 -0.000412902 1.77938e-15
0 0 0
0 0 0
0 0 0
0 0 0
0 0 0
0.00171388 -0.00527046 -8.86374e-06
0.000621018 -0.00273389 1.39224e-05
-6.22781e-15 0.00524901 2.22662e-05
-0.000621018 -0.00273389 1.39224e-05
-0.00171388 -0.00527046 -8.86374e-06
      </DataArray> 
      <DataArray type="Float64" NumberOfComponents="3" Name="Acceleration" format="ascii">
0 0 0
0 0 0
0 0 0
0 0 0
0 0 0
0.000432642 0.00285 -1.50473e-05
0.00030705 0.00381824 -1.42058e-05
-8.12527e-29 0.00319472 3.73351e-05
-0.00030705 0.00381824 -1.42058e-05
-0.000432642 0.00285 -1.50473e-05
0.000815356 -0.00239044 0
-0.000981435 -0.0015071 0
2.66454e-15 -0.000324997 0
0.000981435 -0.0015071 0
-0.000815356 -0.00239044 0
-0.000103674 -0.000403985 3.55271e-15
-0.000435819 -0.00129393 -1.77636e-15
-4.44089e-15 -0.0022572 3.55271e-15
0.000435819 -0.00129393 3.55271e-15
0.000103674 -0.000403985 -1.77636e-15
0 0 0
0 0 0
0 0 0
0 0 0
0 0 0
0.000432642 0.00285 1.50473e-05
0.00030705 0.00381824 1.42058e-05
4.44089e-15 0.00319472 -3.73351e-05
-0.00030705 0.00381824 1.42058e-05
-0.000432642 0.00285 1.50473e-05
      </DataArray> 
    </PointData>
    <CellData>
    </CellData>
  </Piece>
  </UnstructuredGrid>
</VTKFile>
