<?xml version="1.0"?>
<VTKFile type="UnstructuredGrid">
  <UnstructuredGrid>
  <Piece NumberOfPoints="30"  NumberOfCells="85">
    <Points>
      <DataArray type="Float64" NumberOfComponents="3" format="ascii">
0 0 0
4 0 0
8 0 0
12 0 0
16 0 0
15.9987 2.99844 0.000736434
11.9997 2.99562 0.000753777
8 2.99986 0.000785676
4.00026 2.99562 0.000753777
0.00126627 2.99844 0.000736434
0.00233116 -0.111696 8
4.00196 -0.111942 8
8 -0.12355 8
11.998 -0.111942 8
15.9977 -0.111696 8
15.993 2.88808 8
11.9909 2.8922 8
8 2.87842 8
4.0091 2.8922 8
0.00698072 2.88808 8
0 0 16
4 0 16
8 0 16
12 0 16
16 0 16
15.9987 2.99844 15.9993
11.9997 2.99562 15.9992
8 2.99986 15.9992
4.00026 2.99562 15.9992
0.00126627 2.99844 15.9993
      </DataArray>
    </Points>
    <Cells>
      <DataArray type="Int32" Name="connectivity" format="ascii">
0 1
1 2
2 3
3 4
4 5
5 6
6 7
7 8
8 9
9 0
8 1
7 2
6 3
10 11
11 12
12 13
13 14
14 15
15 16
16 17
17 18
18 19
19 10
18 11
17 12
16 13
20 21
21 22
22 23
23 24
24 25
25 26
26 27
27 28
28 29
20 29
28 21
22 27
23 26
20 10
10 0
29 19
19 9
21 11
28 18
11 1
18 8
22 12
27 17
12 2
17 7
23 13
26 16
13 3
16 6
24 14
25 15
15 5
14 4
25 23
29 21
19 11
9 1
15 13
5 3
8 2
6 2
18 12
16 12
28 22
26 22
19 20
19 0
21 18
18 1
22 17
17 2
23 16
16 3
15 24
15 4
20 18
18 0
24 16
16 4
      </DataArray>
      <DataArray type="Int32" Name="offsets" format="ascii">
2
4
6
8
10
12
14
16
18
20
22
24
26
28
30
32
34
36
38
40
42
44
46
48
50
52
54
56
58
60
62
64
66
68
70
72
74
76
78
80
82
84
86
88
90
92
94
96
98
100
102
104
106
108
110
112
114
116
118
120
122
124
126
128
130
132
134
136
138
140
142
144
146
148
150
152
154
156
158
160
162
164
166
168
170
      </DataArray>
      <DataArray type="UInt8" Name="types" format="ascii">
4
4
4
4
4
4
4
4
4
4
4
4
4
4
4
4
4
4
4
4
4
4
4
4
4
4
4
4
4
4
4
4
4
4
4
4
4
4
4
4
4
4
4
4
4
4
4
4
4
4
4
4
4
4
4
4
4
4
4
4
4
4
4
4
4
4
4
4
4
4
4
4
4
4
4
4
4
4
4
4
4
4
4
4
4
      </DataArray>
    </Cells>
    <PointData>
      <DataArray type="Float64" NumberOfComponents="3" Name="Displacement" format="ascii">
0 0 0
0 0 0
0 0 0
0 0 0
0 0 0
-0.00126627 -0.00156206 0.000736434
-0.000261846 -0.004378 0.000753777
-2.84217e-14 -0.000138492 0.000785676
0.000261846 -0.004378 0.000753777
0.00126627 -0.00156206 0.000736434
0.00233116 -0.111696 0
0.00196382 -0.111942 0
6.75016e-14 -0.12355 0
-0.00196382 -0.111942 0
-0.00233116 -0.111696 0
-0.00698072 -0.111915 -1.33227e-14
-0.00909614 -0.107798 -1.95399e-14
4.9738e-14 -0.121577 -6.21725e-15
0.00909614 -0.107798 8.88178e-15
0.00698072 -0.111915 -2.22045e-14
0 0 0
0 0 0
0 0 0
0 0 0
0 0 0
-0.00126627 -0.00156206 -0.000736434
-0.000261846 -0.004378 -0.000753777
-2.30926e-14 -0.000138492 -0.000785676
0.000261846 -0.004378 -0.000753777
0.00126627 -0.00156206 -0.000736434
      </DataArray> 
      <DataArray type="Float64" NumberOfComponents="3" Name="Velocity" format="ascii">
0 0 0
0 0 0
0 0 0
0 0 0
0 0 0
0.000978778 -0.00626927 1.48162e-05
-0.000828951 0.000558143 6.05038e-05
-5.33813e-15 -0.0010859 0.000130003
0.000828951 0.000558143 6.05038e-05
-0.000978778 -0.00626927 1.48162e-05
0.000211935 0.0015768 0
0.000810565 -0.00251973 0
1.77938e-15 -0.00402239 0
-0.000810565 -0.00251973 0
-0.000211935 0.0015768 0
-0.00123429 0.000214457 6.22781e-15
-0.000426637 -0.00160741 3.55875e-15
-3.55875e-15 -0.00191754 -8.00719e-15
0.000426637 -0.00160741 7.1175e-15
0.00123429 0.000214457 1.15659e-14
0 0 0
0 0 0
0 0 0
0 0 0
0 0 0
0.000978778 -0.00626927 -1.48162e-05
-0.000828951 0.000558143 -6.05038e-05
-5.33813e-15 -0.0010859 -0.000130003
0.000828951 0.000558143 -6.05038e-05
-0.000978778 -0.00626927 -1.48162e-05
      </DataArray> 
      <DataArray type="Float64" NumberOfComponents="3" Name="Acceleration" format="ascii">
0 0 0
0 0 0
0 0 0
0 0 0
0 0 0
0.00168723 -0.00368994 1.05852e-05
0.000668679 -0.000471299 -2.39843e-05
1.42109e-14 -0.00612038 5.37474e-05
-0.000668679 -0.000471299 -2.39843e-05
-0.00168723 -0.00368994 1.05852e-05
-0.000239971 -0.00018061 0
0.000463347 0.00170903 0
-3.55271e-15 0.00193278 0
-0.000463347 0.00170903 0
0.000239971 -0.00018061 0
0.000134606 0.00215447 4.44089e-15
-0.000223548 0.00110521 5.32907e-15
-3.55271e-15 0.000871727 8.88178e-16
0.000223548 0.00110521 -1.77636e-15
-0.000134606 0.00215447 2.66454e-15
0 0 0
0 0 0
0 0 0
0 0 0
0 0 0
0.00168723 -0.00368994 -1.05852e-05
0.000668679 -0.000471299 2.39843e-05
5.32907e-15 -0.00612038 -5.37474e-05
-0.000668679 -0.000471299 2.39843e-05
-0.00168723 -0.00368994 -1.05852e-05
      </DataArray> 
    </PointData>
    <CellData>
    </CellData>
  </Piece>
  </UnstructuredGrid>
</VTKFile>
