<?xml version="1.0"?>
<VTKFile type="UnstructuredGrid">
  <UnstructuredGrid>
  <Piece NumberOfPoints="30"  NumberOfCells="85">
    <Points>
      <DataArray type="Float64" NumberOfComponents="3" format="ascii">
0 0 0
4 0 0
8 0 0
12 0 0
16 0 0
16.0001 2.99259 0.000474877
11.9991 2.99742 0.00011803
8 2.99612 0.000724091
4.00088 2.99742 0.00011803
-0.000117736 2.99259 0.000474877
0.00563277 -0.0932289 8
4.0049 -0.0819681 8
8 -0.0920242 8
11.9951 -0.0819681 8
15.9944 -0.0932289 8
15.9962 2.91001 8
11.993 2.92026 8
8 2.90555 8
4.00704 2.92026 8
0.00382883 2.91001 8
0 0 16
4 0 16
8 0 16
12 0 16
16 0 16
16.0001 2.99259 15.9995
11.9991 2.99742 15.9999
8 2.99612 15.9993
4.00088 2.99742 15.9999
-0.000117736 2.99259 15.9995
      </DataArray>
    </Points>
    <Cells>
      <DataArray type="Int32" Name="connectivity" format="ascii">
0 1
1 2
2 3
3 4
4 5
5 6
6 7
7 8
8 9
9 0
8 1
7 2
6 3
10 11
11 12
12 13
13 14
14 15
15 16
16 17
17 18
18 19
19 10
18 11
17 12
16 13
20 21
21 22
22 23
23 24
24 25
25 26
26 27
27 28
28 29
20 29
28 21
22 27
23 26
20 10
10 0
29 19
19 9
21 11
28 18
11 1
18 8
22 12
27 17
12 2
17 7
23 13
26 16
13 3
16 6
24 14
25 15
15 5
14 4
25 23
29 21
19 11
9 1
15 13
5 3
8 2
6 2
18 12
16 12
28 22
26 22
19 20
19 0
21 18
18 1
22 17
17 2
23 16
16 3
15 24
15 4
20 18
18 0
24 16
16 4
      </DataArray>
      <DataArray type="Int32" Name="offsets" format="ascii">
2
4
6
8
10
12
14
16
18
20
22
24
26
28
30
32
34
36
38
40
42
44
46
48
50
52
54
56
58
60
62
64
66
68
70
72
74
76
78
80
82
84
86
88
90
92
94
96
98
100
102
104
106
108
110
112
114
116
118
120
122
124
126
128
130
132
134
136
138
140
142
144
146
148
150
152
154
156
158
160
162
164
166
168
170
      </DataArray>
      <DataArray type="UInt8" Name="types" format="ascii">
4
4
4
4
4
4
4
4
4
4
4
4
4
4
4
4
4
4
4
4
4
4
4
4
4
4
4
4
4
4
4
4
4
4
4
4
4
4
4
4
4
4
4
4
4
4
4
4
4
4
4
4
4
4
4
4
4
4
4
4
4
4
4
4
4
4
4
4
4
4
4
4
4
4
4
4
4
4
4
4
4
4
4
4
4
      </DataArray>
    </Cells>
    <PointData>
      <DataArray type="Float64" NumberOfComponents="3" Name="Displacement" format="ascii">
0 0 0
0 0 0
0 0 0
0 0 0
0 0 0
0.000117736 -0.00740578 0.000474877
-0.000879486 -0.00257528 0.00011803
-1.42109e-14 -0.0038752 0.000724091
0.000879486 -0.00257528 0.00011803
-0.000117736 -0.00740578 0.000474877
0.00563277 -0.0932289 0
0.00490076 -0.0819681 0
5.50671e-14 -0.0920242 0
-0.00490076 -0.0819681 0
-0.00563277 -0.0932289 0
-0.00382883 -0.0899875 -6.39488e-14
-0.00703744 -0.0797389 4.61853e-14
3.55271e-14 -0.0944485 1.06581e-14
0.00703744 -0.0797389 7.28306e-14
0.00382883 -0.0899875 1.77636e-14
0 0 0
0 0 0
0 0 0
0 0 0
0 0 0
0.000117736 -0.00740578 -0.000474877
-0.000879486 -0.00257528 -0.00011803
-3.4639e-14 -0.0038752 -0.000724091
0.000879486 -0.00257528 -0.00011803
-0.000117736 -0.00740578 -0.000474877
      </DataArray> 
      <DataArray type="Float64" NumberOfComponents="3" Name="Velocity" format="ascii">
0 0 0
0 0 0
0 0 0
0 0 0
0 0 0
0.00122186 -0.00553649 -1.46323e-05
0.000403014 -0.00283952 -0.000745032
-5.87194e-14 0.00570821 -0.000106507
-0.000403014 -0.00283952 -0.000745032
-0.00122186 -0.00553649 -1.46323e-05
0.000161894 0.0045761 0
-3.7066e-05 0.00779619 0
4.09256e-14 0.0104251 0
3.7066e-05 0.00779619 0
-0.000161894 0.0045761 0
0.00225234 0.00477009 1.77938e-14
0.00117594 0.00805653 6.15312e-29
-2.13525e-14 0.0085171 1.06763e-14
-0.00117594 0.00805653 5.33813e-15
-0.00225234 0.00477009 -1.77938e-14
0 0 0
0 0 0
0 0 0
0 0 0
0 0 0
0.00122186 -0.00553649 1.46323e-05
0.000403014 -0.00283952 0.000745032
-5.24916e-14 0.00570821 0.000106507
-0.000403014 -0.00283952 0.000745032
-0.00122186 -0.00553649 1.46323e-05
      </DataArray> 
      <DataArray type="Float64" NumberOfComponents="3" Name="Acceleration" format="ascii">
0 0 0
0 0 0
0 0 0
0 0 0
0 0 0
0.00133497 0.00298694 -1.65183e-05
0.00207298 -0.00214465 8.02322e-05
2.4869e-14 -0.002194 -8.22212e-05
-0.00207298 -0.00214465 8.02322e-05
-0.00133497 0.00298694 -1.65183e-05
-0.000468874 0.00282642 0
-0.000766027 0.000518148 0
-5.32907e-15 -0.000628078 0
0.000766027 0.000518148 0
0.000468874 0.00282642 0
-0.000237591 -0.000147547 3.19744e-14
0.000251018 0.000636138 1.42109e-14
-1.06581e-14 0.00191601 -1.77636e-14
-0.000251018 0.000636138 -2.66454e-14
0.000237591 -0.000147547 7.76239e-28
0 0 0
0 0 0
0 0 0
0 0 0
0 0 0
0.00133497 0.00298694 1.65183e-05
0.00207298 -0.00214465 -8.02322e-05
3.64153e-14 -0.002194 8.22212e-05
-0.00207298 -0.00214465 -8.02322e-05
-0.00133497 0.00298694 1.65183e-05
      </DataArray> 
    </PointData>
    <CellData>
    </CellData>
  </Piece>
  </UnstructuredGrid>
</VTKFile>
