<?xml version="1.0"?>
<VTKFile type="UnstructuredGrid">
  <UnstructuredGrid>
  <Piece NumberOfPoints="30"  NumberOfCells="85">
    <Points>
      <DataArray type="Float64" NumberOfComponents="3" format="ascii">
0 0 0
4 0 0
8 0 0
12 0 0
16 0 0
16.0011 2.99071 3.68891e-05
12.0005 2.99199 -0.00112228
8 2.99535 -9.49544e-05
3.99945 2.99199 -0.00112228
-0.00114117 2.99071 3.68891e-05
0.00504912 -0.0375947 8
4.00387 -0.0248882 8
8 -0.0247803 8
11.9961 -0.0248882 8
15.995 -0.0375947 8
16.0024 2.95992 8
11.9999 2.97517 8
8 2.97275 8
4.0001 2.97517 8
-0.00241478 2.95992 8
0 0 16
4 0 16
8 0 16
12 0 16
16 0 16
16.0011 2.99071 16
12.0005 2.99199 16.0011
8 2.99535 16.0001
3.99945 2.99199 16.0011
-0.00114117 2.99071 16
      </DataArray>
    </Points>
    <Cells>
      <DataArray type="Int32" Name="connectivity" format="ascii">
0 1
1 2
2 3
3 4
4 5
5 6
6 7
7 8
8 9
9 0
8 1
7 2
6 3
10 11
11 12
12 13
13 14
14 15
15 16
16 17
17 18
18 19
19 10
18 11
17 12
16 13
20 21
21 22
22 23
23 24
24 25
25 26
26 27
27 28
28 29
20 29
28 21
22 27
23 26
20 10
10 0
29 19
19 9
21 11
28 18
11 1
18 8
22 12
27 17
12 2
17 7
23 13
26 16
13 3
16 6
24 14
25 15
15 5
14 4
25 23
29 21
19 11
9 1
15 13
5 3
8 2
6 2
18 12
16 12
28 22
26 22
19 20
19 0
21 18
18 1
22 17
17 2
23 16
16 3
15 24
15 4
20 18
18 0
24 16
16 4
      </DataArray>
      <DataArray type="Int32" Name="offsets" format="ascii">
2
4
6
8
10
12
14
16
18
20
22
24
26
28
30
32
34
36
38
40
42
44
46
48
50
52
54
56
58
60
62
64
66
68
70
72
74
76
78
80
82
84
86
88
90
92
94
96
98
100
102
104
106
108
110
112
114
116
118
120
122
124
126
128
130
132
134
136
138
140
142
144
146
148
150
152
154
156
158
160
162
164
166
168
170
      </DataArray>
      <DataArray type="UInt8" Name="types" format="ascii">
4
4
4
4
4
4
4
4
4
4
4
4
4
4
4
4
4
4
4
4
4
4
4
4
4
4
4
4
4
4
4
4
4
4
4
4
4
4
4
4
4
4
4
4
4
4
4
4
4
4
4
4
4
4
4
4
4
4
4
4
4
4
4
4
4
4
4
4
4
4
4
4
4
4
4
4
4
4
4
4
4
4
4
4
4
      </DataArray>
    </Cells>
    <PointData>
      <DataArray type="Float64" NumberOfComponents="3" Name="Displacement" format="ascii">
0 0 0
0 0 0
0 0 0
0 0 0
0 0 0
0.00114117 -0.00928589 3.68891e-05
0.000549337 -0.0080131 -0.00112228
7.10543e-15 -0.0046453 -9.49544e-05
-0.000549337 -0.0080131 -0.00112228
-0.00114117 -0.00928589 3.68891e-05
0.00504912 -0.0375947 0
0.00387351 -0.0248882 0
1.19016e-13 -0.0247803 0
-0.00387351 -0.0248882 0
-0.00504912 -0.0375947 0
0.00241478 -0.0400814 2.66454e-14
-0.000103004 -0.0248339 1.1191e-13
2.02505e-13 -0.0272493 -2.13163e-14
0.000103004 -0.0248339 1.24345e-14
-0.00241478 -0.0400814 -1.15463e-14
0 0 0
0 0 0
0 0 0
0 0 0
0 0 0
0.00114117 -0.00928589 -3.68891e-05
0.000549337 -0.0080131 0.00112228
-3.55271e-15 -0.0046453 9.49544e-05
-0.000549337 -0.0080131 0.00112228
-0.00114117 -0.00928589 -3.68891e-05
      </DataArray> 
      <DataArray type="Float64" NumberOfComponents="3" Name="Velocity" format="ascii">
0 0 0
0 0 0
0 0 0
0 0 0
0 0 0
0.00357918 -0.00402424 -1.77173e-05
0.00135631 0.000540985 -0.000533599
-2.31319e-14 -0.00590812 0.000120476
-0.00135631 0.000540985 -0.000533599
-0.00357918 -0.00402424 -1.77173e-05
0.00107048 0.00412015 0
-0.000219089 0.0077692 0
7.1175e-15 0.0090614 0
0.000219089 0.0077692 0
-0.00107048 0.00412015 0
0.00201473 0.00441178 -5.87194e-14
0.00189729 0.00855613 5.33813e-14
5.96091e-14 0.0107958 -8.89688e-15
-0.00189729 0.00855613 -8.89688e-15
-0.00201473 0.00441178 -2.66906e-15
0 0 0
0 0 0
0 0 0
0 0 0
0 0 0
0.00357918 -0.00402424 1.77173e-05
0.00135631 0.000540985 0.000533599
-3.55875e-14 -0.00590812 -0.000120476
-0.00135631 0.000540985 0.000533599
-0.00357918 -0.00402424 1.77173e-05
      </DataArray> 
      <DataArray type="Float64" NumberOfComponents="3" Name="Acceleration" format="ascii">
0 0 0
0 0 0
0 0 0
0 0 0
0 0 0
0.00179184 0.0049591 8.4378e-06
0.00177199 0.00299479 0.000353535
-1.77636e-14 -0.0013881 4.97103e-05
-0.00177199 0.00299479 0.000353535
-0.00179184 0.0049591 8.4378e-06
-0.000747891 -0.00215379 0
-5.23459e-05 -0.000871404 0
1.59872e-14 -0.00137744 0
5.23459e-05 -0.000871404 0
0.000747891 -0.00215379 0
2.13135e-05 0.000613842 8.88178e-15
-1.92691e-05 -0.000671329 -1.95399e-14
-3.28626e-14 -0.000525784 3.55271e-15
1.92691e-05 -0.000671329 -8.88178e-15
-2.13135e-05 0.000613842 -1.15463e-14
0 0 0
0 0 0
0 0 0
0 0 0
0 0 0
0.00179184 0.0049591 -8.4378e-06
0.00177199 0.00299479 -0.000353535
-3.55271e-14 -0.0013881 -4.97103e-05
-0.00177199 0.00299479 -0.000353535
-0.00179184 0.0049591 -8.4378e-06
      </DataArray> 
    </PointData>
    <CellData>
    </CellData>
  </Piece>
  </UnstructuredGrid>
</VTKFile>
