<?xml version="1.0"?>
<VTKFile type="UnstructuredGrid">
  <UnstructuredGrid>
  <Piece NumberOfPoints="30"  NumberOfCells="85">
    <Points>
      <DataArray type="Float64" NumberOfComponents="3" format="ascii">
0 0 0
4 0 0
8 0 0
12 0 0
16 0 0
15.9992 2.99574 0.000268705
11.9997 2.99458 0.000317997
8 2.99972 0.000465266
4.00026 2.99458 0.000317997
0.00082698 2.99574 0.000268705
0.000290863 -0.0729232 8
4.00117 -0.0842621 8
8 -0.10346 8
11.9988 -0.0842621 8
15.9997 -0.0729232 8
15.9888 2.92556 8
11.9889 2.91856 8
8 2.89777 8
4.01114 2.91856 8
0.0111826 2.92556 8
0 0 16
4 0 16
8 0 16
12 0 16
16 0 16
15.9992 2.99574 15.9997
11.9997 2.99458 15.9997
8 2.99972 15.9995
4.00026 2.99458 15.9997
0.00082698 2.99574 15.9997
      </DataArray>
    </Points>
    <Cells>
      <DataArray type="Int32" Name="connectivity" format="ascii">
0 1
1 2
2 3
3 4
4 5
5 6
6 7
7 8
8 9
9 0
8 1
7 2
6 3
10 11
11 12
12 13
13 14
14 15
15 16
16 17
17 18
18 19
19 10
18 11
17 12
16 13
20 21
21 22
22 23
23 24
24 25
25 26
26 27
27 28
28 29
20 29
28 21
22 27
23 26
20 10
10 0
29 19
19 9
21 11
28 18
11 1
18 8
22 12
27 17
12 2
17 7
23 13
26 16
13 3
16 6
24 14
25 15
15 5
14 4
25 23
29 21
19 11
9 1
15 13
5 3
8 2
6 2
18 12
16 12
28 22
26 22
19 20
19 0
21 18
18 1
22 17
17 2
23 16
16 3
15 24
15 4
20 18
18 0
24 16
16 4
      </DataArray>
      <DataArray type="Int32" Name="offsets" format="ascii">
2
4
6
8
10
12
14
16
18
20
22
24
26
28
30
32
34
36
38
40
42
44
46
48
50
52
54
56
58
60
62
64
66
68
70
72
74
76
78
80
82
84
86
88
90
92
94
96
98
100
102
104
106
108
110
112
114
116
118
120
122
124
126
128
130
132
134
136
138
140
142
144
146
148
150
152
154
156
158
160
162
164
166
168
170
      </DataArray>
      <DataArray type="UInt8" Name="types" format="ascii">
4
4
4
4
4
4
4
4
4
4
4
4
4
4
4
4
4
4
4
4
4
4
4
4
4
4
4
4
4
4
4
4
4
4
4
4
4
4
4
4
4
4
4
4
4
4
4
4
4
4
4
4
4
4
4
4
4
4
4
4
4
4
4
4
4
4
4
4
4
4
4
4
4
4
4
4
4
4
4
4
4
4
4
4
4
      </DataArray>
    </Cells>
    <PointData>
      <DataArray type="Float64" NumberOfComponents="3" Name="Displacement" format="ascii">
0 0 0
0 0 0
0 0 0
0 0 0
0 0 0
-0.00082698 -0.00426175 0.000268705
-0.000255004 -0.00541891 0.000317997
1.95399e-14 -0.000276552 0.000465266
0.000255004 -0.00541891 0.000317997
0.00082698 -0.00426175 0.000268705
0.000290863 -0.0729232 0
0.00117228 -0.0842621 0
3.90799e-14 -0.10346 0
-0.00117228 -0.0842621 0
-0.000290863 -0.0729232 0
-0.0111826 -0.0744442 5.32907e-15
-0.0111431 -0.0814427 1.42109e-14
5.15143e-14 -0.102227 3.55271e-15
0.0111431 -0.0814427 1.77636e-15
0.0111826 -0.0744442 3.55271e-14
0 0 0
0 0 0
0 0 0
0 0 0
0 0 0
-0.00082698 -0.00426175 -0.000268705
-0.000255004 -0.00541891 -0.000317997
1.95399e-14 -0.000276552 -0.000465266
0.000255004 -0.00541891 -0.000317997
0.00082698 -0.00426175 -0.000268705
      </DataArray> 
      <DataArray type="Float64" NumberOfComponents="3" Name="Velocity" format="ascii">
0 0 0
0 0 0
0 0 0
0 0 0
0 0 0
-0.00320805 -0.00508153 -5.06127e-05
-0.00351483 0.00172603 -0.000113636
5.33813e-15 -0.00167342 -0.000141117
0.00351483 0.00172603 -0.000113636
0.00320805 -0.00508153 -5.06127e-05
-0.000907651 0.00780817 0
0.000264787 0.00715123 0
-5.33813e-15 0.00698254 0
-0.000264787 0.00715123 0
0.000907651 0.00780817 0
0.00098316 0.00759219 1.77938e-15
0.000956744 0.00777288 -3.55875e-15
-8.89688e-15 0.00788338 3.55875e-15
-0.000956744 0.00777288 -3.55875e-15
-0.00098316 0.00759219 3.55875e-15
0 0 0
0 0 0
0 0 0
0 0 0
0 0 0
-0.00320805 -0.00508153 5.06127e-05
-0.00351483 0.00172603 0.000113636
3.55875e-15 -0.00167342 0.000141117
0.00351483 0.00172603 0.000113636
0.00320805 -0.00508153 5.06127e-05
      </DataArray> 
      <DataArray type="Float64" NumberOfComponents="3" Name="Acceleration" format="ascii">
0 0 0
0 0 0
0 0 0
0 0 0
0 0 0
0.00197128 -0.00054348 1.76731e-05
0.00118046 0.000576581 1.64127e-05
-5.32907e-15 -0.00597505 7.28317e-05
-0.00118046 0.000576581 1.64127e-05
-0.00197128 -0.00054348 1.76731e-05
0.000580763 -0.00130408 0
-0.000314873 0.00130734 0
-3.55271e-15 0.00237428 0
0.000314873 0.00130734 0
-0.000580763 -0.00130408 0
0.000443721 0.00111395 1.77636e-15
0.000154885 0.000156483 6.54755e-29
-8.88178e-15 0.000513729 1.26218e-29
-0.000154885 0.000156483 -1.77636e-15
-0.000443721 0.00111395 -3.55271e-15
0 0 0
0 0 0
0 0 0
0 0 0
0 0 0
0.00197128 -0.00054348 -1.76731e-05
0.00118046 0.000576581 -1.64127e-05
-1.77636e-15 -0.00597505 -7.28317e-05
-0.00118046 0.000576581 -1.64127e-05
-0.00197128 -0.00054348 -1.76731e-05
      </DataArray> 
    </PointData>
    <CellData>
    </CellData>
  </Piece>
  </UnstructuredGrid>
</VTKFile>
