<?xml version="1.0"?>
<VTKFile type="UnstructuredGrid">
  <UnstructuredGrid>
  <Piece NumberOfPoints="30"  NumberOfCells="85">
    <Points>
      <DataArray type="Float64" NumberOfComponents="3" format="ascii">
0 0 0
4 0 0
8 0 0
12 0 0
16 0 0
16.0036 2.99656 0.0005762
12.0024 2.99794 0.000829905
8 2.99019 0.00118422
3.99764 2.99794 0.000829905
-0.00359306 2.99656 0.0005762
-0.000102245 -0.0974393 8
3.99956 -0.112921 8
8 -0.137218 8
12.0004 -0.112921 8
16.0001 -0.0974393 8
15.9848 2.90459 8
11.9846 2.88955 8
8 2.86117 8
4.01539 2.88955 8
0.0151875 2.90459 8
0 0 16
4 0 16
8 0 16
12 0 16
16 0 16
16.0036 2.99656 15.9994
12.0024 2.99794 15.9992
8 2.99019 15.9988
3.99764 2.99794 15.9992
-0.00359306 2.99656 15.9994
      </DataArray>
    </Points>
    <Cells>
      <DataArray type="Int32" Name="connectivity" format="ascii">
0 1
1 2
2 3
3 4
4 5
5 6
6 7
7 8
8 9
9 0
8 1
7 2
6 3
10 11
11 12
12 13
13 14
14 15
15 16
16 17
17 18
18 19
19 10
18 11
17 12
16 13
20 21
21 22
22 23
23 24
24 25
25 26
26 27
27 28
28 29
20 29
28 21
22 27
23 26
20 10
10 0
29 19
19 9
21 11
28 18
11 1
18 8
22 12
27 17
12 2
17 7
23 13
26 16
13 3
16 6
24 14
25 15
15 5
14 4
25 23
29 21
19 11
9 1
15 13
5 3
8 2
6 2
18 12
16 12
28 22
26 22
19 20
19 0
21 18
18 1
22 17
17 2
23 16
16 3
15 24
15 4
20 18
18 0
24 16
16 4
      </DataArray>
      <DataArray type="Int32" Name="offsets" format="ascii">
2
4
6
8
10
12
14
16
18
20
22
24
26
28
30
32
34
36
38
40
42
44
46
48
50
52
54
56
58
60
62
64
66
68
70
72
74
76
78
80
82
84
86
88
90
92
94
96
98
100
102
104
106
108
110
112
114
116
118
120
122
124
126
128
130
132
134
136
138
140
142
144
146
148
150
152
154
156
158
160
162
164
166
168
170
      </DataArray>
      <DataArray type="UInt8" Name="types" format="ascii">
4
4
4
4
4
4
4
4
4
4
4
4
4
4
4
4
4
4
4
4
4
4
4
4
4
4
4
4
4
4
4
4
4
4
4
4
4
4
4
4
4
4
4
4
4
4
4
4
4
4
4
4
4
4
4
4
4
4
4
4
4
4
4
4
4
4
4
4
4
4
4
4
4
4
4
4
4
4
4
4
4
4
4
4
4
      </DataArray>
    </Cells>
    <PointData>
      <DataArray type="Float64" NumberOfComponents="3" Name="Displacement" format="ascii">
0 0 0
0 0 0
0 0 0
0 0 0
0 0 0
0.00359306 -0.00344022 0.0005762
0.00236087 -0.00206493 0.000829905
-3.55271e-15 -0.00980545 0.00118422
-0.00236087 -0.00206493 0.000829905
-0.00359306 -0.00344022 0.0005762
-0.000102245 -0.0974393 0
-0.000435503 -0.112921 0
-3.37508e-14 -0.137218 0
0.000435503 -0.112921 0
0.000102245 -0.0974393 0
-0.0151875 -0.0954051 5.32907e-15
-0.015386 -0.110446 1.24345e-14
-1.68754e-14 -0.138832 -1.95399e-14
0.015386 -0.110446 0
0.0151875 -0.0954051 1.24345e-14
0 0 0
0 0 0
0 0 0
0 0 0
0 0 0
0.00359306 -0.00344022 -0.0005762
0.00236087 -0.00206493 -0.000829905
-3.55271e-15 -0.00980545 -0.00118422
-0.00236087 -0.00206493 -0.000829905
-0.00359306 -0.00344022 -0.0005762
      </DataArray> 
      <DataArray type="Float64" NumberOfComponents="3" Name="Velocity" format="ascii">
0 0 0
0 0 0
0 0 0
0 0 0
0 0 0
0.00471629 0.00224448 2.26722e-05
0.0034929 0.00123878 -6.78015e-05
-1.60144e-14 -0.00463433 7.69752e-05
-0.0034929 0.00123878 -6.78015e-05
-0.00471629 0.00224448 2.26722e-05
-0.000574194 -3.2319e-05 0
0.00141186 0.000674707 0
-5.33813e-15 0.000839469 0
-0.00141186 0.000674707 0
0.000574194 -3.2319e-05 0
-0.000280302 -0.000680513 8.89688e-15
-0.000280038 4.6356e-05 -1.77938e-15
9.78656e-15 -0.000464501 7.1175e-15
0.000280038 4.6356e-05 -3.55875e-15
0.000280302 -0.000680513 1.24556e-14
0 0 0
0 0 0
0 0 0
0 0 0
0 0 0
0.00471629 0.00224448 -2.26722e-05
0.0034929 0.00123878 6.78015e-05
-1.60144e-14 -0.00463433 -7.69752e-05
-0.0034929 0.00123878 6.78015e-05
-0.00471629 0.00224448 -2.26722e-05
      </DataArray> 
      <DataArray type="Float64" NumberOfComponents="3" Name="Acceleration" format="ascii">
0 0 0
0 0 0
0 0 0
0 0 0
0 0 0
-0.00131112 -0.00281213 -8.91391e-06
-0.000969976 -0.0034401 -2.32498e-05
1.42109e-14 0.00401322 -5.29545e-05
0.000969976 -0.0034401 -2.32498e-05
0.00131112 -0.00281213 -8.91391e-06
-0.000188583 0.00180998 0
0.000967187 0.00114001 0
1.24345e-14 0.000650756 0
-0.000967187 0.00114001 0
0.000188583 0.00180998 0
0.000321143 0.000239024 -1.77636e-15
0.000626591 0.00138069 -1.77636e-15
-2.66454e-15 0.00303677 1.77636e-15
-0.000626591 0.00138069 3.55271e-15
-0.000321143 0.000239024 -1.77636e-15
0 0 0
0 0 0
0 0 0
0 0 0
0 0 0
-0.00131112 -0.00281213 8.91391e-06
-0.000969976 -0.0034401 2.32498e-05
3.55271e-15 0.00401322 5.29545e-05
0.000969976 -0.0034401 2.32498e-05
0.00131112 -0.00281213 8.91391e-06
      </DataArray> 
    </PointData>
    <CellData>
    </CellData>
  </Piece>
  </UnstructuredGrid>
</VTKFile>
