<?xml version="1.0"?>
<VTKFile type="UnstructuredGrid">
  <UnstructuredGrid>
  <Piece NumberOfPoints="30"  NumberOfCells="85">
    <Points>
      <DataArray type="Float64" NumberOfComponents="3" format="ascii">
0 0 0
4 0 0
8 0 0
12 0 0
16 0 0
16.002 2.98899 0.000128692
12.0001 2.99595 7.41576e-06
8 2.99899 6.34754e-05
3.99995 2.99595 7.41576e-06
-0.0019654 2.98899 0.000128692
0.00241613 -0.0458249 8
4.0039 -0.0272166 8
8 -0.0224579 8
11.9961 -0.0272166 8
15.9976 -0.0458249 8
16.0057 2.95273 8
12.0014 2.97407 8
8 2.97397 8
3.9986 2.97407 8
-0.00569691 2.95273 8
0 0 16
4 0 16
8 0 16
12 0 16
16 0 16
16.002 2.98899 15.9999
12.0001 2.99595 16
8 2.99899 15.9999
3.99995 2.99595 16
-0.0019654 2.98899 15.9999
      </DataArray>
    </Points>
    <Cells>
      <DataArray type="Int32" Name="connectivity" format="ascii">
0 1
1 2
2 3
3 4
4 5
5 6
6 7
7 8
8 9
9 0
8 1
7 2
6 3
10 11
11 12
12 13
13 14
14 15
15 16
16 17
17 18
18 19
19 10
18 11
17 12
16 13
20 21
21 22
22 23
23 24
24 25
25 26
26 27
27 28
28 29
20 29
28 21
22 27
23 26
20 10
10 0
29 19
19 9
21 11
28 18
11 1
18 8
22 12
27 17
12 2
17 7
23 13
26 16
13 3
16 6
24 14
25 15
15 5
14 4
25 23
29 21
19 11
9 1
15 13
5 3
8 2
6 2
18 12
16 12
28 22
26 22
19 20
19 0
21 18
18 1
22 17
17 2
23 16
16 3
15 24
15 4
20 18
18 0
24 16
16 4
      </DataArray>
      <DataArray type="Int32" Name="offsets" format="ascii">
2
4
6
8
10
12
14
16
18
20
22
24
26
28
30
32
34
36
38
40
42
44
46
48
50
52
54
56
58
60
62
64
66
68
70
72
74
76
78
80
82
84
86
88
90
92
94
96
98
100
102
104
106
108
110
112
114
116
118
120
122
124
126
128
130
132
134
136
138
140
142
144
146
148
150
152
154
156
158
160
162
164
166
168
170
      </DataArray>
      <DataArray type="UInt8" Name="types" format="ascii">
4
4
4
4
4
4
4
4
4
4
4
4
4
4
4
4
4
4
4
4
4
4
4
4
4
4
4
4
4
4
4
4
4
4
4
4
4
4
4
4
4
4
4
4
4
4
4
4
4
4
4
4
4
4
4
4
4
4
4
4
4
4
4
4
4
4
4
4
4
4
4
4
4
4
4
4
4
4
4
4
4
4
4
4
4
      </DataArray>
    </Cells>
    <PointData>
      <DataArray type="Float64" NumberOfComponents="3" Name="Displacement" format="ascii">
0 0 0
0 0 0
0 0 0
0 0 0
0 0 0
0.0019654 -0.0110119 0.000128692
5.04957e-05 -0.00405399 7.41576e-06
1.24345e-14 -0.00100945 6.34754e-05
-5.04957e-05 -0.00405399 7.41576e-06
-0.0019654 -0.0110119 0.000128692
0.00241613 -0.0458249 0
0.00390415 -0.0272166 0
1.77636e-14 -0.0224579 0
-0.00390415 -0.0272166 0
-0.00241613 -0.0458249 0
0.00569691 -0.0472712 -6.21725e-15
0.00140154 -0.0259275 -7.10543e-15
1.24345e-14 -0.0260329 -1.77636e-15
-0.00140154 -0.0259275 -2.66454e-15
-0.00569691 -0.0472712 -2.66454e-15
0 0 0
0 0 0
0 0 0
0 0 0
0 0 0
0.0019654 -0.0110119 -0.000128692
5.04957e-05 -0.00405399 -7.41576e-06
8.88178e-15 -0.00100945 -6.34754e-05
-5.04957e-05 -0.00405399 -7.41576e-06
-0.0019654 -0.0110119 -0.000128692
      </DataArray> 
      <DataArray type="Float64" NumberOfComponents="3" Name="Velocity" format="ascii">
0 0 0
0 0 0
0 0 0
0 0 0
0 0 0
-0.00341443 0.000736096 7.70583e-07
-0.00238165 0.00125778 -1.66852e-05
1.77938e-15 -0.00340166 3.96009e-05
0.00238165 0.00125778 -1.66852e-05
0.00341443 0.000736096 7.70583e-07
-0.000529654 -0.00597187 0
-0.000389179 -0.00793923 0
-7.88861e-31 -0.00910134 0
0.000389179 -0.00793923 0
0.000529654 -0.00597187 0
-0.000764474 -0.00506763 -2.66906e-15
-0.00104851 -0.00840993 -1.77938e-15
3.55875e-15 -0.0107395 -1.77938e-15
0.00104851 -0.00840993 2.66906e-15
0.000764474 -0.00506763 4.44844e-15
0 0 0
0 0 0
0 0 0
0 0 0
0 0 0
-0.00341443 0.000736096 -7.70583e-07
-0.00238165 0.00125778 1.66852e-05
1.77938e-15 -0.00340166 -3.96009e-05
0.00238165 0.00125778 1.66852e-05
0.00341443 0.000736096 -7.70583e-07
      </DataArray> 
      <DataArray type="Float64" NumberOfComponents="3" Name="Acceleration" format="ascii">
0 0 0
0 0 0
0 0 0
0 0 0
0 0 0
0.000977319 0.00680224 -1.66129e-05
0.00212539 -0.000874785 7.10996e-06
-5.32907e-15 -0.00520366 -9.58614e-06
-0.00212539 -0.000874785 7.10996e-06
-0.000977319 0.00680224 -1.66129e-05
0.00100258 -0.00124201 0
-0.00125187 -0.00015787 0
-4.41735e-29 -0.00229804 0
0.00125187 -0.00015787 0
-0.00100258 -0.00124201 0
-0.000526851 0.00045849 4.44089e-15
8.94477e-05 -0.000864893 3.15544e-30
-1.77636e-15 -7.2181e-05 -5.32907e-15
-8.94477e-05 -0.000864893 8.88178e-16
0.000526851 0.00045849 8.88178e-16
0 0 0
0 0 0
0 0 0
0 0 0
0 0 0
0.000977319 0.00680224 1.66129e-05
0.00212539 -0.000874785 -7.10996e-06
1.77636e-15 -0.00520366 9.58614e-06
-0.00212539 -0.000874785 -7.10996e-06
-0.000977319 0.00680224 1.66129e-05
      </DataArray> 
    </PointData>
    <CellData>
    </CellData>
  </Piece>
  </UnstructuredGrid>
</VTKFile>
