<?xml version="1.0"?>
<VTKFile type="UnstructuredGrid">
  <UnstructuredGrid>
  <Piece NumberOfPoints="30"  NumberOfCells="85">
    <Points>
      <DataArray type="Float64" NumberOfComponents="3" format="ascii">
0 0 0
4 0 0
8 0 0
12 0 0
16 0 0
16.0007 2.99238 2.53563e-05
11.9994 2.99731 8.63886e-05
8 2.99955 2.21406e-05
4.00055 2.99731 8.63886e-05
-0.000718055 2.99238 2.53563e-05
0.000498486 -0.0373561 8
4.00028 -0.0453201 8
8 -0.0546289 8
11.9997 -0.0453201 8
15.9995 -0.0373561 8
15.994 2.9603 8
11.9941 2.95539 8
8 2.94407 8
4.00586 2.95539 8
0.00603197 2.9603 8
0 0 16
4 0 16
8 0 16
12 0 16
16 0 16
16.0007 2.99238 16
11.9994 2.99731 15.9999
8 2.99955 16
4.00055 2.99731 15.9999
-0.000718055 2.99238 16
      </DataArray>
    </Points>
    <Cells>
      <DataArray type="Int32" Name="connectivity" format="ascii">
0 1
1 2
2 3
3 4
4 5
5 6
6 7
7 8
8 9
9 0
8 1
7 2
6 3
10 11
11 12
12 13
13 14
14 15
15 16
16 17
17 18
18 19
19 10
18 11
17 12
16 13
20 21
21 22
22 23
23 24
24 25
25 26
26 27
27 28
28 29
20 29
28 21
22 27
23 26
20 10
10 0
29 19
19 9
21 11
28 18
11 1
18 8
22 12
27 17
12 2
17 7
23 13
26 16
13 3
16 6
24 14
25 15
15 5
14 4
25 23
29 21
19 11
9 1
15 13
5 3
8 2
6 2
18 12
16 12
28 22
26 22
19 20
19 0
21 18
18 1
22 17
17 2
23 16
16 3
15 24
15 4
20 18
18 0
24 16
16 4
      </DataArray>
      <DataArray type="Int32" Name="offsets" format="ascii">
2
4
6
8
10
12
14
16
18
20
22
24
26
28
30
32
34
36
38
40
42
44
46
48
50
52
54
56
58
60
62
64
66
68
70
72
74
76
78
80
82
84
86
88
90
92
94
96
98
100
102
104
106
108
110
112
114
116
118
120
122
124
126
128
130
132
134
136
138
140
142
144
146
148
150
152
154
156
158
160
162
164
166
168
170
      </DataArray>
      <DataArray type="UInt8" Name="types" format="ascii">
4
4
4
4
4
4
4
4
4
4
4
4
4
4
4
4
4
4
4
4
4
4
4
4
4
4
4
4
4
4
4
4
4
4
4
4
4
4
4
4
4
4
4
4
4
4
4
4
4
4
4
4
4
4
4
4
4
4
4
4
4
4
4
4
4
4
4
4
4
4
4
4
4
4
4
4
4
4
4
4
4
4
4
4
4
      </DataArray>
    </Cells>
    <PointData>
      <DataArray type="Float64" NumberOfComponents="3" Name="Displacement" format="ascii">
0 0 0
0 0 0
0 0 0
0 0 0
0 0 0
0.000718055 -0.00762116 2.53563e-05
-0.00055392 -0.00269477 8.63886e-05
3.55271e-15 -0.000451683 2.21406e-05
0.00055392 -0.00269477 8.63886e-05
-0.000718055 -0.00762116 2.53563e-05
0.000498486 -0.0373561 0
0.00027861 -0.0453201 0
-8.88178e-15 -0.0546289 0
-0.00027861 -0.0453201 0
-0.000498486 -0.0373561 0
-0.00603197 -0.0397038 0
-0.005856 -0.0446093 -6.21725e-15
-6.21725e-15 -0.0559295 -1.77636e-15
0.005856 -0.0446093 0
0.00603197 -0.0397038 3.55271e-15
0 0 0
0 0 0
0 0 0
0 0 0
0 0 0
0.000718055 -0.00762116 -2.53563e-05
-0.00055392 -0.00269477 -8.63886e-05
1.77636e-15 -0.000451683 -2.21406e-05
0.00055392 -0.00269477 -8.63886e-05
-0.000718055 -0.00762116 -2.53563e-05
      </DataArray> 
      <DataArray type="Float64" NumberOfComponents="3" Name="Velocity" format="ascii">
0 0 0
0 0 0
0 0 0
0 0 0
0 0 0
0.00181157 -0.00595481 1.39493e-05
0.000367373 -0.00208789 -2.71585e-05
5.33813e-15 -0.00233956 -9.31106e-05
-0.000367373 -0.00208789 -2.71585e-05
-0.00181157 -0.00595481 1.39493e-05
-0.00184843 0.00748377 0
0.000286124 0.00899955 0
-1.77938e-15 0.0124181 0
-0.000286124 0.00899955 0
0.00184843 0.00748377 0
0.00212027 0.00629388 1.77938e-15
0.00108472 0.00824012 2.66906e-15
2.66906e-15 0.00975477 -3.55875e-15
-0.00108472 0.00824012 1.77938e-15
-0.00212027 0.00629388 1.77938e-15
0 0 0
0 0 0
0 0 0
0 0 0
0 0 0
0.00181157 -0.00595481 -1.39493e-05
0.000367373 -0.00208789 2.71585e-05
5.33813e-15 -0.00233956 9.31106e-05
-0.000367373 -0.00208789 2.71585e-05
-0.00181157 -0.00595481 -1.39493e-05
      </DataArray> 
      <DataArray type="Float64" NumberOfComponents="3" Name="Acceleration" format="ascii">
0 0 0
0 0 0
0 0 0
0 0 0
0 0 0
0.00096179 0.00307441 1.57744e-05
0.00196616 -0.00210175 7.94151e-06
-7.10543e-15 -0.00579029 6.71819e-05
-0.00196616 -0.00210175 7.94151e-06
-0.00096179 0.00307441 1.57744e-05
-0.000141975 -0.00203403 0
0.000342066 0.000171616 0
1.77636e-15 -0.000179166 0
-0.000342066 0.000171616 0
0.000141975 -0.00203403 0
0.000313341 8.82887e-05 3.55271e-15
0.000135557 -0.000310252 8.88178e-16
8.88178e-16 1.41776e-05 -1.77636e-15
-0.000135557 -0.000310252 0
-0.000313341 8.82887e-05 0
0 0 0
0 0 0
0 0 0
0 0 0
0 0 0
0.00096179 0.00307441 -1.57744e-05
0.00196616 -0.00210175 -7.94151e-06
-5.32907e-15 -0.00579029 -6.71819e-05
-0.00196616 -0.00210175 -7.94151e-06
-0.00096179 0.00307441 -1.57744e-05
      </DataArray> 
    </PointData>
    <CellData>
    </CellData>
  </Piece>
  </UnstructuredGrid>
</VTKFile>
