<?xml version="1.0"?>
<VTKFile type="UnstructuredGrid">
  <UnstructuredGrid>
  <Piece NumberOfPoints="30"  NumberOfCells="85">
    <Points>
      <DataArray type="Float64" NumberOfComponents="3" format="ascii">
0 0 0
4 0 0
8 0 0
12 0 0
16 0 0
15.9967 2.99247 0.0006554
11.998 2.99213 0.000697359
8 2.99205 0.00103697
4.00199 2.99213 0.000697359
0.00329625 2.99247 0.0006554
0.00362845 -0.105588 8
4.003 -0.107872 8
8 -0.125065 8
11.997 -0.107872 8
15.9964 -0.105588 8
15.9897 2.89448 8
11.9888 2.89444 8
8 2.87567 8
4.01123 2.89444 8
0.0102584 2.89448 8
0 0 16
4 0 16
8 0 16
12 0 16
16 0 16
15.9967 2.99247 15.9993
11.998 2.99213 15.9993
8 2.99205 15.999
4.00199 2.99213 15.9993
0.00329625 2.99247 15.9993
      </DataArray>
    </Points>
    <Cells>
      <DataArray type="Int32" Name="connectivity" format="ascii">
0 1
1 2
2 3
3 4
4 5
5 6
6 7
7 8
8 9
9 0
8 1
7 2
6 3
10 11
11 12
12 13
13 14
14 15
15 16
16 17
17 18
18 19
19 10
18 11
17 12
16 13
20 21
21 22
22 23
23 24
24 25
25 26
26 27
27 28
28 29
20 29
28 21
22 27
23 26
20 10
10 0
29 19
19 9
21 11
28 18
11 1
18 8
22 12
27 17
12 2
17 7
23 13
26 16
13 3
16 6
24 14
25 15
15 5
14 4
25 23
29 21
19 11
9 1
15 13
5 3
8 2
6 2
18 12
16 12
28 22
26 22
19 20
19 0
21 18
18 1
22 17
17 2
23 16
16 3
15 24
15 4
20 18
18 0
24 16
16 4
      </DataArray>
      <DataArray type="Int32" Name="offsets" format="ascii">
2
4
6
8
10
12
14
16
18
20
22
24
26
28
30
32
34
36
38
40
42
44
46
48
50
52
54
56
58
60
62
64
66
68
70
72
74
76
78
80
82
84
86
88
90
92
94
96
98
100
102
104
106
108
110
112
114
116
118
120
122
124
126
128
130
132
134
136
138
140
142
144
146
148
150
152
154
156
158
160
162
164
166
168
170
      </DataArray>
      <DataArray type="UInt8" Name="types" format="ascii">
4
4
4
4
4
4
4
4
4
4
4
4
4
4
4
4
4
4
4
4
4
4
4
4
4
4
4
4
4
4
4
4
4
4
4
4
4
4
4
4
4
4
4
4
4
4
4
4
4
4
4
4
4
4
4
4
4
4
4
4
4
4
4
4
4
4
4
4
4
4
4
4
4
4
4
4
4
4
4
4
4
4
4
4
4
      </DataArray>
    </Cells>
    <PointData>
      <DataArray type="Float64" NumberOfComponents="3" Name="Displacement" format="ascii">
0 0 0
0 0 0
0 0 0
0 0 0
0 0 0
-0.00329625 -0.00753026 0.0006554
-0.0019933 -0.00786596 0.000697359
-3.01981e-14 -0.00795144 0.00103697
0.0019933 -0.00786596 0.000697359
0.00329625 -0.00753026 0.0006554
0.00362845 -0.105588 0
0.00300298 -0.107872 0
-6.12843e-14 -0.125065 0
-0.00300298 -0.107872 0
-0.00362845 -0.105588 0
-0.0102584 -0.105521 -1.15463e-14
-0.0112341 -0.105555 0
-3.28626e-14 -0.124333 7.10543e-15
0.0112341 -0.105555 -9.76996e-15
0.0102584 -0.105521 -1.5099e-14
0 0 0
0 0 0
0 0 0
0 0 0
0 0 0
-0.00329625 -0.00753026 -0.0006554
-0.0019933 -0.00786596 -0.000697359
-2.66454e-14 -0.00795144 -0.00103697
0.0019933 -0.00786596 -0.000697359
0.00329625 -0.00753026 -0.0006554
      </DataArray> 
      <DataArray type="Float64" NumberOfComponents="3" Name="Velocity" format="ascii">
0 0 0
0 0 0
0 0 0
0 0 0
0 0 0
-0.00192063 0.00127639 5.61887e-05
-0.00101117 1.83845e-05 2.01873e-05
1.77938e-15 0.0057479 -3.75108e-05
0.00101117 1.83845e-05 2.01873e-05
0.00192063 0.00127639 5.61887e-05
0.000533742 -0.00582416 0
-0.000159247 -0.00308526 0
-8.89688e-16 0.000212997 0
0.000159247 -0.00308526 0
-0.000533742 -0.00582416 0
0.00034075 -0.00400591 8.89688e-16
-0.000346066 -0.00271512 -5.33813e-15
2.66906e-15 -0.00204873 -7.1175e-15
0.000346066 -0.00271512 -2.66906e-15
-0.00034075 -0.00400591 -8.89688e-16
0 0 0
0 0 0
0 0 0
0 0 0
0 0 0
-0.00192063 0.00127639 -5.61887e-05
-0.00101117 1.83845e-05 -2.01873e-05
-1.77938e-15 0.0057479 3.75108e-05
0.00101117 1.83845e-05 -2.01873e-05
0.00192063 0.00127639 -5.61887e-05
      </DataArray> 
      <DataArray type="Float64" NumberOfComponents="3" Name="Acceleration" format="ascii">
0 0 0
0 0 0
0 0 0
0 0 0
0 0 0
0.00439687 0.00411494 -1.73817e-05
0.00294839 0.00345591 -2.79906e-05
8.88178e-15 0.00207186 -7.1976e-05
-0.00294839 0.00345591 -2.79906e-05
-0.00439687 0.00411494 -1.73817e-05
-0.000407456 7.07763e-05 0
0.000221948 0.00047893 0
9.76996e-15 0.00147647 0
-0.000221948 0.00047893 0
0.000407456 7.07763e-05 0
0.000594308 0.00186828 9.76996e-15
3.20608e-05 0.00144692 -1.10441e-29
-4.44089e-15 0.00151476 9.46633e-30
-3.20608e-05 0.00144692 8.88178e-16
-0.000594308 0.00186828 2.66454e-15
0 0 0
0 0 0
0 0 0
0 0 0
0 0 0
0.00439687 0.00411494 1.73817e-05
0.00294839 0.00345591 2.79906e-05
1.77636e-15 0.00207186 7.1976e-05
-0.00294839 0.00345591 2.79906e-05
-0.00439687 0.00411494 1.73817e-05
      </DataArray> 
    </PointData>
    <CellData>
    </CellData>
  </Piece>
  </UnstructuredGrid>
</VTKFile>
