<?xml version="1.0"?>
<VTKFile type="UnstructuredGrid">
  <UnstructuredGrid>
  <Piece NumberOfPoints="30"  NumberOfCells="85">
    <Points>
      <DataArray type="Float64" NumberOfComponents="3" format="ascii">
0 0 0
4 0 0
8 0 0
12 0 0
16 0 0
16.0002 2.99058 0.000700712
11.9994 2.99493 0.000889984
8 2.98829 0.000865867
4.0006 2.99493 0.000889984
-0.000193518 2.99058 0.000700712
0.00353136 -0.106361 8
4.00301 -0.106513 8
8 -0.126746 8
11.997 -0.106513 8
15.9965 -0.106361 8
15.9895 2.89617 8
11.988 2.89606 8
8 2.87448 8
4.01205 2.89606 8
0.010538 2.89617 8
0 0 16
4 0 16
8 0 16
12 0 16
16 0 16
16.0002 2.99058 15.9993
11.9994 2.99493 15.9991
8 2.98829 15.9991
4.0006 2.99493 15.9991
-0.000193518 2.99058 15.9993
      </DataArray>
    </Points>
    <Cells>
      <DataArray type="Int32" Name="connectivity" format="ascii">
0 1
1 2
2 3
3 4
4 5
5 6
6 7
7 8
8 9
9 0
8 1
7 2
6 3
10 11
11 12
12 13
13 14
14 15
15 16
16 17
17 18
18 19
19 10
18 11
17 12
16 13
20 21
21 22
22 23
23 24
24 25
25 26
26 27
27 28
28 29
20 29
28 21
22 27
23 26
20 10
10 0
29 19
19 9
21 11
28 18
11 1
18 8
22 12
27 17
12 2
17 7
23 13
26 16
13 3
16 6
24 14
25 15
15 5
14 4
25 23
29 21
19 11
9 1
15 13
5 3
8 2
6 2
18 12
16 12
28 22
26 22
19 20
19 0
21 18
18 1
22 17
17 2
23 16
16 3
15 24
15 4
20 18
18 0
24 16
16 4
      </DataArray>
      <DataArray type="Int32" Name="offsets" format="ascii">
2
4
6
8
10
12
14
16
18
20
22
24
26
28
30
32
34
36
38
40
42
44
46
48
50
52
54
56
58
60
62
64
66
68
70
72
74
76
78
80
82
84
86
88
90
92
94
96
98
100
102
104
106
108
110
112
114
116
118
120
122
124
126
128
130
132
134
136
138
140
142
144
146
148
150
152
154
156
158
160
162
164
166
168
170
      </DataArray>
      <DataArray type="UInt8" Name="types" format="ascii">
4
4
4
4
4
4
4
4
4
4
4
4
4
4
4
4
4
4
4
4
4
4
4
4
4
4
4
4
4
4
4
4
4
4
4
4
4
4
4
4
4
4
4
4
4
4
4
4
4
4
4
4
4
4
4
4
4
4
4
4
4
4
4
4
4
4
4
4
4
4
4
4
4
4
4
4
4
4
4
4
4
4
4
4
4
      </DataArray>
    </Cells>
    <PointData>
      <DataArray type="Float64" NumberOfComponents="3" Name="Displacement" format="ascii">
0 0 0
0 0 0
0 0 0
0 0 0
0 0 0
0.000193518 -0.00942134 0.000700712
-0.000600312 -0.0050658 0.000889984
1.77636e-14 -0.0117121 0.000865867
0.000600312 -0.0050658 0.000889984
-0.000193518 -0.00942134 0.000700712
0.00353136 -0.106361 0
0.00300512 -0.106513 0
9.05942e-14 -0.126746 0
-0.00300512 -0.106513 0
-0.00353136 -0.106361 0
-0.010538 -0.10383 5.32907e-15
-0.0120461 -0.103938 9.41469e-14
2.4869e-14 -0.125523 5.15143e-14
0.0120461 -0.103938 1.06581e-14
0.010538 -0.10383 -1.86517e-14
0 0 0
0 0 0
0 0 0
0 0 0
0 0 0
0.000193518 -0.00942134 -0.000700712
-0.000600312 -0.0050658 -0.000889984
2.84217e-14 -0.0117121 -0.000865867
0.000600312 -0.0050658 -0.000889984
-0.000193518 -0.00942134 -0.000700712
      </DataArray> 
      <DataArray type="Float64" NumberOfComponents="3" Name="Velocity" format="ascii">
0 0 0
0 0 0
0 0 0
0 0 0
0 0 0
0.00441665 -4.28424e-05 -1.62735e-05
0.00261333 0.00199802 -0.00058729
-3.02494e-14 -0.00156262 2.17184e-05
-0.00261333 0.00199802 -0.00058729
-0.00441665 -4.28424e-05 -1.62735e-05
-0.000522565 0.000652207 0
0.000960299 -0.00421257 0
-2.66906e-14 -0.00612911 0
-0.000960299 -0.00421257 0
0.000522565 0.000652207 0
-0.00144764 -0.000659279 8.89688e-15
-0.000591786 -0.00384331 1.06763e-14
3.91463e-14 -0.00317437 -1.06763e-14
0.000591786 -0.00384331 -1.24556e-14
0.00144764 -0.000659279 -2.93597e-14
0 0 0
0 0 0
0 0 0
0 0 0
0 0 0
0.00441665 -4.28424e-05 1.62735e-05
0.00261333 0.00199802 0.00058729
-3.55875e-15 -0.00156262 -2.17184e-05
-0.00261333 0.00199802 0.00058729
-0.00441665 -4.28424e-05 1.62735e-05
      </DataArray> 
      <DataArray type="Float64" NumberOfComponents="3" Name="Acceleration" format="ascii">
0 0 0
0 0 0
0 0 0
0 0 0
0 0 0
0.00203822 0.00539565 -4.84668e-05
0.00227532 0.000304791 -8.30618e-05
-2.84217e-14 0.00598942 -1.86617e-05
-0.00227532 0.000304791 -8.30618e-05
-0.00203822 0.00539565 -4.84668e-05
-0.000338175 0.0022173 0
0.000188753 0.000638515 0
5.32907e-15 0.00226928 0
-0.000188753 0.000638515 0
0.000338175 0.0022173 0
0.000423992 0.000718198 2.30926e-14
0.000201171 0.00114366 -2.30926e-14
2.4869e-14 0.00132527 -2.30926e-14
-0.000201171 0.00114366 1.06581e-14
-0.000423992 0.000718198 9.76996e-15
0 0 0
0 0 0
0 0 0
0 0 0
0 0 0
0.00203822 0.00539565 4.84668e-05
0.00227532 0.000304791 8.30618e-05
-7.10543e-15 0.00598942 1.86617e-05
-0.00227532 0.000304791 8.30618e-05
-0.00203822 0.00539565 4.84668e-05
      </DataArray> 
    </PointData>
    <CellData>
    </CellData>
  </Piece>
  </UnstructuredGrid>
</VTKFile>
