<?xml version="1.0"?>
<VTKFile type="UnstructuredGrid">
  <UnstructuredGrid>
  <Piece NumberOfPoints="30"  NumberOfCells="85">
    <Points>
      <DataArray type="Float64" NumberOfComponents="3" format="ascii">
0 0 0
4 0 0
8 0 0
12 0 0
16 0 0
16.0077 2.99173 0.000299507
12.0046 2.99482 9.20167e-05
8 2.99712 0.000212612
3.99536 2.99482 9.20167e-05
-0.00772324 2.99173 0.000299507
-0.000224903 -0.0698546 8
4.00127 -0.0683385 8
8 -0.0769976 8
11.9987 -0.0683385 8
16.0002 -0.0698546 8
15.9961 2.92996 8
11.994 2.93221 8
8 2.92038 8
4.00599 2.93221 8
0.00390199 2.92996 8
0 0 16
4 0 16
8 0 16
12 0 16
16 0 16
16.0077 2.99173 15.9997
12.0046 2.99482 15.9999
8 2.99712 15.9998
3.99536 2.99482 15.9999
-0.00772324 2.99173 15.9997
      </DataArray>
    </Points>
    <Cells>
      <DataArray type="Int32" Name="connectivity" format="ascii">
0 1
1 2
2 3
3 4
4 5
5 6
6 7
7 8
8 9
9 0
8 1
7 2
6 3
10 11
11 12
12 13
13 14
14 15
15 16
16 17
17 18
18 19
19 10
18 11
17 12
16 13
20 21
21 22
22 23
23 24
24 25
25 26
26 27
27 28
28 29
20 29
28 21
22 27
23 26
20 10
10 0
29 19
19 9
21 11
28 18
11 1
18 8
22 12
27 17
12 2
17 7
23 13
26 16
13 3
16 6
24 14
25 15
15 5
14 4
25 23
29 21
19 11
9 1
15 13
5 3
8 2
6 2
18 12
16 12
28 22
26 22
19 20
19 0
21 18
18 1
22 17
17 2
23 16
16 3
15 24
15 4
20 18
18 0
24 16
16 4
      </DataArray>
      <DataArray type="Int32" Name="offsets" format="ascii">
2
4
6
8
10
12
14
16
18
20
22
24
26
28
30
32
34
36
38
40
42
44
46
48
50
52
54
56
58
60
62
64
66
68
70
72
74
76
78
80
82
84
86
88
90
92
94
96
98
100
102
104
106
108
110
112
114
116
118
120
122
124
126
128
130
132
134
136
138
140
142
144
146
148
150
152
154
156
158
160
162
164
166
168
170
      </DataArray>
      <DataArray type="UInt8" Name="types" format="ascii">
4
4
4
4
4
4
4
4
4
4
4
4
4
4
4
4
4
4
4
4
4
4
4
4
4
4
4
4
4
4
4
4
4
4
4
4
4
4
4
4
4
4
4
4
4
4
4
4
4
4
4
4
4
4
4
4
4
4
4
4
4
4
4
4
4
4
4
4
4
4
4
4
4
4
4
4
4
4
4
4
4
4
4
4
4
      </DataArray>
    </Cells>
    <PointData>
      <DataArray type="Float64" NumberOfComponents="3" Name="Displacement" format="ascii">
0 0 0
0 0 0
0 0 0
0 0 0
0 0 0
0.00772324 -0.00826878 0.000299507
0.00464144 -0.00518417 9.20167e-05
1.95399e-14 -0.00287947 0.000212612
-0.00464144 -0.00518417 9.20167e-05
-0.00772324 -0.00826878 0.000299507
-0.000224903 -0.0698546 0
0.00126585 -0.0683385 0
3.19744e-14 -0.0769976 0
-0.00126585 -0.0683385 0
0.000224903 -0.0698546 0
-0.00390199 -0.0700375 -9.76996e-15
-0.00598512 -0.0677916 -7.99361e-15
2.30926e-14 -0.0796184 -7.10543e-15
0.00598512 -0.0677916 -6.21725e-15
0.00390199 -0.0700375 1.06581e-14
0 0 0
0 0 0
0 0 0
0 0 0
0 0 0
0.00772324 -0.00826878 -0.000299507
0.00464144 -0.00518417 -9.20167e-05
2.13163e-14 -0.00287947 -0.000212612
-0.00464144 -0.00518417 -9.20167e-05
-0.00772324 -0.00826878 -0.000299507
      </DataArray> 
      <DataArray type="Float64" NumberOfComponents="3" Name="Velocity" format="ascii">
0 0 0
0 0 0
0 0 0
0 0 0
0 0 0
-0.00264805 -0.00417216 8.90664e-05
-0.00196221 -0.0031729 4.53768e-05
-2.31319e-14 0.00519871 0.00011006
0.00196221 -0.0031729 4.53768e-05
0.00264805 -0.00417216 8.90664e-05
-0.000568841 -0.0057793 0
-0.00214434 -0.00936208 0
-1.77938e-15 -0.0115521 0
0.00214434 -0.00936208 0
0.000568841 -0.0057793 0
-0.00209375 -0.00439755 4.44844e-15
-0.00155268 -0.00892881 -2.66906e-15
-1.77938e-14 -0.0110625 1.06763e-14
0.00155268 -0.00892881 2.66906e-15
0.00209375 -0.00439755 1.77938e-15
0 0 0
0 0 0
0 0 0
0 0 0
0 0 0
-0.00264805 -0.00417216 -8.90664e-05
-0.00196221 -0.0031729 -4.53768e-05
-7.1175e-15 0.00519871 -0.00011006
0.00196221 -0.0031729 -4.53768e-05
0.00264805 -0.00417216 -8.90664e-05
      </DataArray> 
      <DataArray type="Float64" NumberOfComponents="3" Name="Acceleration" format="ascii">
0 0 0
0 0 0
0 0 0
0 0 0
0 0 0
-0.00288526 0.00183263 -1.90627e-05
-0.00121394 -0.000836492 5.03205e-05
-8.88178e-15 -0.00324383 6.13516e-05
0.00121394 -0.000836492 5.03205e-05
0.00288526 0.00183263 -1.90627e-05
0.000972752 -0.000154467 0
-0.000349924 -0.000356782 0
7.10543e-15 -0.00112372 0
0.000349924 -0.000356782 0
-0.000972752 -0.000154467 0
-3.19528e-05 0.000535069 4.44089e-15
0.000173792 0.000771891 -4.44089e-15
1.24345e-14 0.00147927 7.41529e-29
-0.000173792 0.000771891 8.88178e-16
3.19528e-05 0.000535069 2.4218e-28
0 0 0
0 0 0
0 0 0
0 0 0
0 0 0
-0.00288526 0.00183263 1.90627e-05
-0.00121394 -0.000836492 -5.03205e-05
1.77636e-14 -0.00324383 -6.13516e-05
0.00121394 -0.000836492 -5.03205e-05
0.00288526 0.00183263 1.90627e-05
      </DataArray> 
    </PointData>
    <CellData>
    </CellData>
  </Piece>
  </UnstructuredGrid>
</VTKFile>
