<?xml version="1.0"?>
<VTKFile type="UnstructuredGrid">
  <UnstructuredGrid>
  <Piece NumberOfPoints="30"  NumberOfCells="85">
    <Points>
      <DataArray type="Float64" NumberOfComponents="3" format="ascii">
0 0 0
4 0 0
8 0 0
12 0 0
16 0 0
16.0004 2.99157 3.41723e-05
11.9996 2.99562 -7.47348e-06
8 2.99096 1.46503e-05
4.0004 2.99562 -7.47348e-06
-0.000396005 2.99157 3.41723e-05
-0.000807209 -0.018365 8
3.99963 -0.0174439 8
8 -0.0226979 8
12.0004 -0.0174439 8
16.0008 -0.018365 8
15.9998 2.97924 8
11.9992 2.98107 8
8 2.97667 8
4.0008 2.98107 8
0.000153198 2.97924 8
0 0 16
4 0 16
8 0 16
12 0 16
16 0 16
16.0004 2.99157 16
11.9996 2.99562 16
8 2.99096 16
4.0004 2.99562 16
-0.000396005 2.99157 16
      </DataArray>
    </Points>
    <Cells>
      <DataArray type="Int32" Name="connectivity" format="ascii">
0 1
1 2
2 3
3 4
4 5
5 6
6 7
7 8
8 9
9 0
8 1
7 2
6 3
10 11
11 12
12 13
13 14
14 15
15 16
16 17
17 18
18 19
19 10
18 11
17 12
16 13
20 21
21 22
22 23
23 24
24 25
25 26
26 27
27 28
28 29
20 29
28 21
22 27
23 26
20 10
10 0
29 19
19 9
21 11
28 18
11 1
18 8
22 12
27 17
12 2
17 7
23 13
26 16
13 3
16 6
24 14
25 15
15 5
14 4
25 23
29 21
19 11
9 1
15 13
5 3
8 2
6 2
18 12
16 12
28 22
26 22
19 20
19 0
21 18
18 1
22 17
17 2
23 16
16 3
15 24
15 4
20 18
18 0
24 16
16 4
      </DataArray>
      <DataArray type="Int32" Name="offsets" format="ascii">
2
4
6
8
10
12
14
16
18
20
22
24
26
28
30
32
34
36
38
40
42
44
46
48
50
52
54
56
58
60
62
64
66
68
70
72
74
76
78
80
82
84
86
88
90
92
94
96
98
100
102
104
106
108
110
112
114
116
118
120
122
124
126
128
130
132
134
136
138
140
142
144
146
148
150
152
154
156
158
160
162
164
166
168
170
      </DataArray>
      <DataArray type="UInt8" Name="types" format="ascii">
4
4
4
4
4
4
4
4
4
4
4
4
4
4
4
4
4
4
4
4
4
4
4
4
4
4
4
4
4
4
4
4
4
4
4
4
4
4
4
4
4
4
4
4
4
4
4
4
4
4
4
4
4
4
4
4
4
4
4
4
4
4
4
4
4
4
4
4
4
4
4
4
4
4
4
4
4
4
4
4
4
4
4
4
4
      </DataArray>
    </Cells>
    <PointData>
      <DataArray type="Float64" NumberOfComponents="3" Name="Displacement" format="ascii">
0 0 0
0 0 0
0 0 0
0 0 0
0 0 0
0.000396005 -0.00842821 3.41723e-05
-0.000397686 -0.00437772 -7.47348e-06
3.19744e-14 -0.00904173 1.46503e-05
0.000397686 -0.00437772 -7.47348e-06
-0.000396005 -0.00842821 3.41723e-05
-0.000807209 -0.018365 0
-0.000374578 -0.0174439 0
7.28306e-14 -0.0226979 0
0.000374578 -0.0174439 0
0.000807209 -0.018365 0
-0.000153198 -0.0207631 2.4869e-14
-0.000800778 -0.0189297 -1.15463e-14
5.86198e-14 -0.0233285 3.01981e-14
0.000800778 -0.0189297 -9.76996e-15
0.000153198 -0.0207631 1.24345e-14
0 0 0
0 0 0
0 0 0
0 0 0
0 0 0
0.000396005 -0.00842821 -3.41723e-05
-0.000397686 -0.00437772 7.47348e-06
3.73035e-14 -0.00904173 -1.46503e-05
0.000397686 -0.00437772 7.47348e-06
-0.000396005 -0.00842821 -3.41723e-05
      </DataArray> 
      <DataArray type="Float64" NumberOfComponents="3" Name="Velocity" format="ascii">
0 0 0
0 0 0
0 0 0
0 0 0
0 0 0
-0.00477814 -0.00166961 -3.42662e-05
-0.00310458 -0.0023288 -8.15491e-05
7.1175e-15 0.00519005 3.02546e-05
0.00310458 -0.0023288 -8.15491e-05
0.00477814 -0.00166961 -3.42662e-05
5.06262e-05 -0.00479788 0
-0.00108886 -0.00742107 0
-7.88861e-31 -0.0102986 0
0.00108886 -0.00742107 0
-5.06262e-05 -0.00479788 0
-0.00132507 -0.00321893 1.77938e-15
-0.000533547 -0.00708248 -8.00719e-15
-1.18329e-30 -0.00809177 -1.18329e-30
0.000533547 -0.00708248 6.22781e-15
0.00132507 -0.00321893 -7.1175e-15
0 0 0
0 0 0
0 0 0
0 0 0
0 0 0
-0.00477814 -0.00166961 3.42662e-05
-0.00310458 -0.0023288 8.15491e-05
-1.24556e-14 0.00519005 -3.02546e-05
0.00310458 -0.0023288 8.15491e-05
0.00477814 -0.00166961 3.42662e-05
      </DataArray> 
      <DataArray type="Float64" NumberOfComponents="3" Name="Acceleration" format="ascii">
0 0 0
0 0 0
0 0 0
0 0 0
0 0 0
0.00167619 0.00414003 -9.13241e-06
0.00192084 -0.000438884 6.4671e-06
-2.13163e-14 0.00320824 -6.97503e-07
-0.00192084 -0.000438884 6.4671e-06
-0.00167619 0.00414003 -9.13241e-06
0.000281599 -0.0020826 0
0.000697668 -0.00147026 0
-1.77636e-15 0.00029168 0
-0.000697668 -0.00147026 0
-0.000281599 -0.0020826 0
0.000297603 -0.000403876 -7.10543e-15
-0.0003595 -0.000674245 -8.88178e-16
-5.32907e-15 -0.00150929 -5.32907e-15
0.0003595 -0.000674245 4.44089e-15
-0.000297603 -0.000403876 -5.32907e-15
0 0 0
0 0 0
0 0 0
0 0 0
0 0 0
0.00167619 0.00414003 9.13241e-06
0.00192084 -0.000438884 -6.4671e-06
-2.66454e-14 0.00320824 6.97503e-07
-0.00192084 -0.000438884 -6.4671e-06
-0.00167619 0.00414003 9.13241e-06
      </DataArray> 
    </PointData>
    <CellData>
    </CellData>
  </Piece>
  </UnstructuredGrid>
</VTKFile>
