<?xml version="1.0"?>
<VTKFile type="UnstructuredGrid">
  <UnstructuredGrid>
  <Piece NumberOfPoints="30"  NumberOfCells="85">
    <Points>
      <DataArray type="Float64" NumberOfComponents="3" format="ascii">
0 0 0
4 0 0
8 0 0
12 0 0
16 0 0
16.0008 2.99494 0.000253864
12.0012 2.99219 -0.00118888
8 2.99134 -5.3082e-05
3.99877 2.99219 -0.00118888
-0.000769378 2.99494 0.000253864
0.00254956 -0.0722311 8
4.00344 -0.0590761 8
8 -0.0574129 8
11.9966 -0.0590761 8
15.9975 -0.0722311 8
16.0005 2.92741 8
11.9977 2.94211 8
8 2.9417 8
4.0023 2.94211 8
-0.000483107 2.92741 8
0 0 16
4 0 16
8 0 16
12 0 16
16 0 16
16.0008 2.99494 15.9997
12.0012 2.99219 16.0012
8 2.99134 16.0001
3.99877 2.99219 16.0012
-0.000769378 2.99494 15.9997
      </DataArray>
    </Points>
    <Cells>
      <DataArray type="Int32" Name="connectivity" format="ascii">
0 1
1 2
2 3
3 4
4 5
5 6
6 7
7 8
8 9
9 0
8 1
7 2
6 3
10 11
11 12
12 13
13 14
14 15
15 16
16 17
17 18
18 19
19 10
18 11
17 12
16 13
20 21
21 22
22 23
23 24
24 25
25 26
26 27
27 28
28 29
20 29
28 21
22 27
23 26
20 10
10 0
29 19
19 9
21 11
28 18
11 1
18 8
22 12
27 17
12 2
17 7
23 13
26 16
13 3
16 6
24 14
25 15
15 5
14 4
25 23
29 21
19 11
9 1
15 13
5 3
8 2
6 2
18 12
16 12
28 22
26 22
19 20
19 0
21 18
18 1
22 17
17 2
23 16
16 3
15 24
15 4
20 18
18 0
24 16
16 4
      </DataArray>
      <DataArray type="Int32" Name="offsets" format="ascii">
2
4
6
8
10
12
14
16
18
20
22
24
26
28
30
32
34
36
38
40
42
44
46
48
50
52
54
56
58
60
62
64
66
68
70
72
74
76
78
80
82
84
86
88
90
92
94
96
98
100
102
104
106
108
110
112
114
116
118
120
122
124
126
128
130
132
134
136
138
140
142
144
146
148
150
152
154
156
158
160
162
164
166
168
170
      </DataArray>
      <DataArray type="UInt8" Name="types" format="ascii">
4
4
4
4
4
4
4
4
4
4
4
4
4
4
4
4
4
4
4
4
4
4
4
4
4
4
4
4
4
4
4
4
4
4
4
4
4
4
4
4
4
4
4
4
4
4
4
4
4
4
4
4
4
4
4
4
4
4
4
4
4
4
4
4
4
4
4
4
4
4
4
4
4
4
4
4
4
4
4
4
4
4
4
4
4
      </DataArray>
    </Cells>
    <PointData>
      <DataArray type="Float64" NumberOfComponents="3" Name="Displacement" format="ascii">
0 0 0
0 0 0
0 0 0
0 0 0
0 0 0
0.000769378 -0.00506098 0.000253864
0.00122652 -0.00781087 -0.00118888
2.84217e-14 -0.00866105 -5.3082e-05
-0.00122652 -0.00781087 -0.00118888
-0.000769378 -0.00506098 0.000253864
0.00254956 -0.0722311 0
0.00343502 -0.0590761 0
-6.75016e-14 -0.0574129 0
-0.00343502 -0.0590761 0
-0.00254956 -0.0722311 0
0.000483107 -0.0725949 -2.57572e-14
-0.00229971 -0.0578928 -1.12799e-13
3.01981e-14 -0.0583004 -2.66454e-15
0.00229971 -0.0578928 -2.30926e-14
-0.000483107 -0.0725949 -2.66454e-14
0 0 0
0 0 0
0 0 0
0 0 0
0 0 0
0.000769378 -0.00506098 -0.000253864
0.00122652 -0.00781087 0.00118888
1.42109e-14 -0.00866105 5.3082e-05
-0.00122652 -0.00781087 0.00118888
-0.000769378 -0.00506098 -0.000253864
      </DataArray> 
      <DataArray type="Float64" NumberOfComponents="3" Name="Velocity" format="ascii">
0 0 0
0 0 0
0 0 0
0 0 0
0 0 0
-0.00219379 0.00666551 4.52187e-05
-0.000353746 0.00197373 0.000221167
-9.46633e-29 0.00544193 0.000225843
0.000353746 0.00197373 0.000221167
0.00219379 0.00666551 4.52187e-05
0.000257163 -0.00815618 0
-0.00104167 -0.00796189 0
1.77938e-15 -0.0101626 0
0.00104167 -0.00796189 0
-0.000257163 -0.00815618 0
-0.00174077 -0.0067161 1.33453e-14
-0.00167263 -0.0084598 3.02494e-14
-4.09256e-14 -0.0120493 2.40216e-14
0.00167263 -0.0084598 1.4235e-14
0.00174077 -0.0067161 2.66906e-14
0 0 0
0 0 0
0 0 0
0 0 0
0 0 0
-0.00219379 0.00666551 -4.52187e-05
-0.000353746 0.00197373 -0.000221167
-5.16019e-14 0.00544193 -0.000225843
0.000353746 0.00197373 -0.000221167
0.00219379 0.00666551 -4.52187e-05
      </DataArray> 
      <DataArray type="Float64" NumberOfComponents="3" Name="Acceleration" format="ascii">
0 0 0
0 0 0
0 0 0
0 0 0
0 0 0
0.00150427 -3.4999e-05 1.23234e-05
0.0004305 0.00262673 0.000417945
-4.26326e-14 0.00281169 8.1034e-05
-0.0004305 0.00262673 0.000417945
-0.00150427 -3.4999e-05 1.23234e-05
0.000592025 -0.000311056 0
-0.000545055 -0.000371455 0
1.77636e-14 -0.00130551 0
0.000545055 -0.000371455 0
-0.000592025 -0.000311056 0
0.000121298 0.000999392 -2.22045e-14
5.68823e-05 0.000564676 4.08562e-14
-1.59872e-14 -7.40695e-05 7.99361e-15
-5.68823e-05 0.000564676 -1.24345e-14
-0.000121298 0.000999392 1.95399e-14
0 0 0
0 0 0
0 0 0
0 0 0
0 0 0
0.00150427 -3.4999e-05 -1.23234e-05
0.0004305 0.00262673 -0.000417945
-1.77636e-14 0.00281169 -8.1034e-05
-0.0004305 0.00262673 -0.000417945
-0.00150427 -3.4999e-05 -1.23234e-05
      </DataArray> 
    </PointData>
    <CellData>
    </CellData>
  </Piece>
  </UnstructuredGrid>
</VTKFile>
