<?xml version="1.0"?>
<VTKFile type="UnstructuredGrid">
  <UnstructuredGrid>
  <Piece NumberOfPoints="30"  NumberOfCells="85">
    <Points>
      <DataArray type="Float64" NumberOfComponents="3" format="ascii">
0 0 0
4 0 0
8 0 0
12 0 0
16 0 0
16.0022 2.99013 0.000579357
12.0009 2.99293 0.000893561
8 2.99074 0.000664053
3.99909 2.99293 0.000893561
-0.00218676 2.99013 0.000579357
0.00156168 -0.0942768 8
4.00147 -0.0977156 8
8 -0.112956 8
11.9985 -0.0977156 8
15.9984 -0.0942768 8
15.9913 2.90641 8
11.9898 2.90605 8
8 2.88982 8
4.01018 2.90605 8
0.00874887 2.90641 8
0 0 16
4 0 16
8 0 16
12 0 16
16 0 16
16.0022 2.99013 15.9994
12.0009 2.99293 15.9991
8 2.99074 15.9993
3.99909 2.99293 15.9991
-0.00218676 2.99013 15.9994
      </DataArray>
    </Points>
    <Cells>
      <DataArray type="Int32" Name="connectivity" format="ascii">
0 1
1 2
2 3
3 4
4 5
5 6
6 7
7 8
8 9
9 0
8 1
7 2
6 3
10 11
11 12
12 13
13 14
14 15
15 16
16 17
17 18
18 19
19 10
18 11
17 12
16 13
20 21
21 22
22 23
23 24
24 25
25 26
26 27
27 28
28 29
20 29
28 21
22 27
23 26
20 10
10 0
29 19
19 9
21 11
28 18
11 1
18 8
22 12
27 17
12 2
17 7
23 13
26 16
13 3
16 6
24 14
25 15
15 5
14 4
25 23
29 21
19 11
9 1
15 13
5 3
8 2
6 2
18 12
16 12
28 22
26 22
19 20
19 0
21 18
18 1
22 17
17 2
23 16
16 3
15 24
15 4
20 18
18 0
24 16
16 4
      </DataArray>
      <DataArray type="Int32" Name="offsets" format="ascii">
2
4
6
8
10
12
14
16
18
20
22
24
26
28
30
32
34
36
38
40
42
44
46
48
50
52
54
56
58
60
62
64
66
68
70
72
74
76
78
80
82
84
86
88
90
92
94
96
98
100
102
104
106
108
110
112
114
116
118
120
122
124
126
128
130
132
134
136
138
140
142
144
146
148
150
152
154
156
158
160
162
164
166
168
170
      </DataArray>
      <DataArray type="UInt8" Name="types" format="ascii">
4
4
4
4
4
4
4
4
4
4
4
4
4
4
4
4
4
4
4
4
4
4
4
4
4
4
4
4
4
4
4
4
4
4
4
4
4
4
4
4
4
4
4
4
4
4
4
4
4
4
4
4
4
4
4
4
4
4
4
4
4
4
4
4
4
4
4
4
4
4
4
4
4
4
4
4
4
4
4
4
4
4
4
4
4
      </DataArray>
    </Cells>
    <PointData>
      <DataArray type="Float64" NumberOfComponents="3" Name="Displacement" format="ascii">
0 0 0
0 0 0
0 0 0
0 0 0
0 0 0
0.00218676 -0.00986792 0.000579357
0.000912076 -0.00707416 0.000893561
2.66454e-14 -0.00926192 0.000664053
-0.000912076 -0.00707416 0.000893561
-0.00218676 -0.00986792 0.000579357
0.00156168 -0.0942768 0
0.00146536 -0.0977156 0
-1.46549e-13 -0.112956 0
-0.00146536 -0.0977156 0
-0.00156168 -0.0942768 0
-0.00874887 -0.0935851 6.03961e-14
-0.0101754 -0.0939471 -1.77636e-15
-1.52767e-13 -0.110178 -8.88178e-16
0.0101754 -0.0939471 3.55271e-15
0.00874887 -0.0935851 3.01981e-14
0 0 0
0 0 0
0 0 0
0 0 0
0 0 0
0.00218676 -0.00986792 -0.000579357
0.000912076 -0.00707416 -0.000893561
6.92779e-14 -0.00926192 -0.000664053
-0.000912076 -0.00707416 -0.000893561
-0.00218676 -0.00986792 -0.000579357
      </DataArray> 
      <DataArray type="Float64" NumberOfComponents="3" Name="Velocity" format="ascii">
0 0 0
0 0 0
0 0 0
0 0 0
0 0 0
0.00201965 -0.00251982 0.000133446
0.00167618 -0.00425115 0.000266601
5.33813e-15 0.00505762 0.000111783
-0.00167618 -0.00425115 0.000266601
-0.00201965 -0.00251982 0.000133446
0.000173436 -0.0061557 0
0.000319205 -0.00431169 0
-1.4235e-14 -0.00696619 0
-0.000319205 -0.00431169 0
-0.000173436 -0.0061557 0
4.90049e-05 -0.0081992 1.06763e-14
-0.000298669 -0.00475549 -7.1175e-15
-8.89688e-16 -0.00655601 -2.66906e-15
0.000298669 -0.00475549 1.06763e-14
-4.90049e-05 -0.0081992 3.55875e-15
0 0 0
0 0 0
0 0 0
0 0 0
0 0 0
0.00201965 -0.00251982 -0.000133446
0.00167618 -0.00425115 -0.000266601
-1.06763e-14 0.00505762 -0.000111783
-0.00167618 -0.00425115 -0.000266601
-0.00201965 -0.00251982 -0.000133446
      </DataArray> 
      <DataArray type="Float64" NumberOfComponents="3" Name="Acceleration" format="ascii">
0 0 0
0 0 0
0 0 0
0 0 0
0 0 0
0.00104846 0.00536032 -4.79144e-05
0.00163321 0.00196471 -0.000127434
-5.32907e-15 0.00343947 -8.62581e-06
-0.00163321 0.00196471 -0.000127434
-0.00104846 0.00536032 -4.79144e-05
-6.04663e-05 0.000613511 0
0.00037899 0.00162077 0
1.06581e-14 0.00280091 0
-0.00037899 0.00162077 0
6.04663e-05 0.000613511 0
0.000225695 0.00100988 -2.13163e-14
7.76338e-05 0.000516914 1.77636e-15
2.22045e-14 0.00010147 -8.88178e-16
-7.76338e-05 0.000516914 7.10543e-15
-0.000225695 0.00100988 -8.88178e-15
0 0 0
0 0 0
0 0 0
0 0 0
0 0 0
0.00104846 0.00536032 4.79144e-05
0.00163321 0.00196471 0.000127434
-3.37508e-14 0.00343947 8.62581e-06
-0.00163321 0.00196471 0.000127434
-0.00104846 0.00536032 4.79144e-05
      </DataArray> 
    </PointData>
    <CellData>
    </CellData>
  </Piece>
  </UnstructuredGrid>
</VTKFile>
