<?xml version="1.0"?>
<VTKFile type="UnstructuredGrid">
  <UnstructuredGrid>
  <Piece NumberOfPoints="30"  NumberOfCells="85">
    <Points>
      <DataArray type="Float64" NumberOfComponents="3" format="ascii">
0 0 0
4 0 0
8 0 0
12 0 0
16 0 0
16.0083 2.99637 0.000449597
12.0061 2.99475 0.00051518
8 2.98969 0.000847754
3.99387 2.99475 0.00051518
-0.00833365 2.99637 0.000449597
0.00101671 -0.090335 8
3.99985 -0.0982701 8
8 -0.118304 8
12.0002 -0.0982701 8
15.999 -0.090335 8
15.9894 2.91183 8
11.9887 2.90347 8
8 2.88176 8
4.01125 2.90347 8
0.0105817 2.91183 8
0 0 16
4 0 16
8 0 16
12 0 16
16 0 16
16.0083 2.99637 15.9996
12.0061 2.99475 15.9995
8 2.98969 15.9992
3.99387 2.99475 15.9995
-0.00833365 2.99637 15.9996
      </DataArray>
    </Points>
    <Cells>
      <DataArray type="Int32" Name="connectivity" format="ascii">
0 1
1 2
2 3
3 4
4 5
5 6
6 7
7 8
8 9
9 0
8 1
7 2
6 3
10 11
11 12
12 13
13 14
14 15
15 16
16 17
17 18
18 19
19 10
18 11
17 12
16 13
20 21
21 22
22 23
23 24
24 25
25 26
26 27
27 28
28 29
20 29
28 21
22 27
23 26
20 10
10 0
29 19
19 9
21 11
28 18
11 1
18 8
22 12
27 17
12 2
17 7
23 13
26 16
13 3
16 6
24 14
25 15
15 5
14 4
25 23
29 21
19 11
9 1
15 13
5 3
8 2
6 2
18 12
16 12
28 22
26 22
19 20
19 0
21 18
18 1
22 17
17 2
23 16
16 3
15 24
15 4
20 18
18 0
24 16
16 4
      </DataArray>
      <DataArray type="Int32" Name="offsets" format="ascii">
2
4
6
8
10
12
14
16
18
20
22
24
26
28
30
32
34
36
38
40
42
44
46
48
50
52
54
56
58
60
62
64
66
68
70
72
74
76
78
80
82
84
86
88
90
92
94
96
98
100
102
104
106
108
110
112
114
116
118
120
122
124
126
128
130
132
134
136
138
140
142
144
146
148
150
152
154
156
158
160
162
164
166
168
170
      </DataArray>
      <DataArray type="UInt8" Name="types" format="ascii">
4
4
4
4
4
4
4
4
4
4
4
4
4
4
4
4
4
4
4
4
4
4
4
4
4
4
4
4
4
4
4
4
4
4
4
4
4
4
4
4
4
4
4
4
4
4
4
4
4
4
4
4
4
4
4
4
4
4
4
4
4
4
4
4
4
4
4
4
4
4
4
4
4
4
4
4
4
4
4
4
4
4
4
4
4
      </DataArray>
    </Cells>
    <PointData>
      <DataArray type="Float64" NumberOfComponents="3" Name="Displacement" format="ascii">
0 0 0
0 0 0
0 0 0
0 0 0
0 0 0
0.00833365 -0.0036258 0.000449597
0.00612785 -0.00524939 0.00051518
1.24345e-14 -0.0103125 0.000847754
-0.00612785 -0.00524939 0.00051518
-0.00833365 -0.0036258 0.000449597
0.00101671 -0.090335 0
-0.000152523 -0.0982701 0
5.32907e-15 -0.118304 0
0.000152523 -0.0982701 0
-0.00101671 -0.090335 0
-0.0105817 -0.0881667 -7.10543e-15
-0.0112521 -0.0965344 -8.88178e-16
2.13163e-14 -0.118242 5.32907e-15
0.0112521 -0.0965344 -7.10543e-15
0.0105817 -0.0881667 -1.24345e-14
0 0 0
0 0 0
0 0 0
0 0 0
0 0 0
0.00833365 -0.0036258 -0.000449597
0.00612785 -0.00524939 -0.00051518
8.88178e-15 -0.0103125 -0.000847754
-0.00612785 -0.00524939 -0.00051518
-0.00833365 -0.0036258 -0.000449597
      </DataArray> 
      <DataArray type="Float64" NumberOfComponents="3" Name="Velocity" format="ascii">
0 0 0
0 0 0
0 0 0
0 0 0
0 0 0
-0.000986176 0.00391709 -6.42231e-05
0.000612312 -0.00145781 -6.77695e-05
-3.55875e-15 -0.0042051 -5.09669e-05
-0.000612312 -0.00145781 -6.77695e-05
0.000986176 0.00391709 -6.42231e-05
-0.000798711 0.00285928 0
0.000209939 0.00581041 0
-1.77938e-15 0.0068119 0
-0.000209939 0.00581041 0
0.000798711 0.00285928 0
0.00147802 0.0030161 3.55875e-15
0.00143894 0.00583451 -4.44844e-15
5.33813e-15 0.00971658 -1.06763e-14
-0.00143894 0.00583451 3.55875e-15
-0.00147802 0.0030161 3.55875e-15
0 0 0
0 0 0
0 0 0
0 0 0
0 0 0
-0.000986176 0.00391709 6.42231e-05
0.000612312 -0.00145781 6.77695e-05
-5.33813e-15 -0.0042051 5.09669e-05
-0.000612312 -0.00145781 6.77695e-05
0.000986176 0.00391709 6.42231e-05
      </DataArray> 
      <DataArray type="Float64" NumberOfComponents="3" Name="Acceleration" format="ascii">
0 0 0
0 0 0
0 0 0
0 0 0
0 0 0
-0.00381032 -0.00396343 7.62859e-06
-0.0031566 -0.00113375 8.61869e-06
-1.77636e-15 0.00454651 -4.4974e-05
0.0031566 -0.00113375 8.61869e-06
0.00381032 -0.00396343 7.62859e-06
-0.000751065 0.00190604 0
0.00139241 0.000536053 0
8.88178e-15 0.0016547 0
-0.00139241 0.000536053 0
0.000751065 0.00190604 0
0.000296973 2.825e-05 7.10543e-15
-9.15507e-07 0.00111112 -8.88178e-16
-3.55271e-15 0.00160284 -5.32907e-15
9.15507e-07 0.00111112 -7.88861e-30
-0.000296973 2.825e-05 1.77636e-15
0 0 0
0 0 0
0 0 0
0 0 0
0 0 0
-0.00381032 -0.00396343 -7.62859e-06
-0.0031566 -0.00113375 -8.61869e-06
-1.77636e-15 0.00454651 4.4974e-05
0.0031566 -0.00113375 -8.61869e-06
0.00381032 -0.00396343 -7.62859e-06
      </DataArray> 
    </PointData>
    <CellData>
    </CellData>
  </Piece>
  </UnstructuredGrid>
</VTKFile>
