<?xml version="1.0"?>
<VTKFile type="UnstructuredGrid">
  <UnstructuredGrid>
  <Piece NumberOfPoints="30"  NumberOfCells="85">
    <Points>
      <DataArray type="Float64" NumberOfComponents="3" format="ascii">
0 0 0
4 0 0
8 0 0
12 0 0
16 0 0
16.0015 2.9994 0.000509782
12.0014 2.99824 0.000919529
8 2.99484 0.000973323
3.99856 2.99824 0.000919529
-0.00148811 2.9994 0.000509782
-0.000818851 -0.0940255 8
4.00123 -0.105827 8
8 -0.123222 8
11.9988 -0.105827 8
16.0008 -0.0940255 8
15.9877 2.90541 8
11.9882 2.89712 8
8 2.88048 8
4.01182 2.89712 8
0.0122551 2.90541 8
0 0 16
4 0 16
8 0 16
12 0 16
16 0 16
16.0015 2.9994 15.9995
12.0014 2.99824 15.9991
8 2.99484 15.999
3.99856 2.99824 15.9991
-0.00148811 2.9994 15.9995
      </DataArray>
    </Points>
    <Cells>
      <DataArray type="Int32" Name="connectivity" format="ascii">
0 1
1 2
2 3
3 4
4 5
5 6
6 7
7 8
8 9
9 0
8 1
7 2
6 3
10 11
11 12
12 13
13 14
14 15
15 16
16 17
17 18
18 19
19 10
18 11
17 12
16 13
20 21
21 22
22 23
23 24
24 25
25 26
26 27
27 28
28 29
20 29
28 21
22 27
23 26
20 10
10 0
29 19
19 9
21 11
28 18
11 1
18 8
22 12
27 17
12 2
17 7
23 13
26 16
13 3
16 6
24 14
25 15
15 5
14 4
25 23
29 21
19 11
9 1
15 13
5 3
8 2
6 2
18 12
16 12
28 22
26 22
19 20
19 0
21 18
18 1
22 17
17 2
23 16
16 3
15 24
15 4
20 18
18 0
24 16
16 4
      </DataArray>
      <DataArray type="Int32" Name="offsets" format="ascii">
2
4
6
8
10
12
14
16
18
20
22
24
26
28
30
32
34
36
38
40
42
44
46
48
50
52
54
56
58
60
62
64
66
68
70
72
74
76
78
80
82
84
86
88
90
92
94
96
98
100
102
104
106
108
110
112
114
116
118
120
122
124
126
128
130
132
134
136
138
140
142
144
146
148
150
152
154
156
158
160
162
164
166
168
170
      </DataArray>
      <DataArray type="UInt8" Name="types" format="ascii">
4
4
4
4
4
4
4
4
4
4
4
4
4
4
4
4
4
4
4
4
4
4
4
4
4
4
4
4
4
4
4
4
4
4
4
4
4
4
4
4
4
4
4
4
4
4
4
4
4
4
4
4
4
4
4
4
4
4
4
4
4
4
4
4
4
4
4
4
4
4
4
4
4
4
4
4
4
4
4
4
4
4
4
4
4
      </DataArray>
    </Cells>
    <PointData>
      <DataArray type="Float64" NumberOfComponents="3" Name="Displacement" format="ascii">
0 0 0
0 0 0
0 0 0
0 0 0
0 0 0
0.00148811 -0.000600797 0.000509782
0.00144397 -0.00175506 0.000919529
-2.57572e-14 -0.00516372 0.000973323
-0.00144397 -0.00175506 0.000919529
-0.00148811 -0.000600797 0.000509782
-0.000818851 -0.0940255 0
0.00123306 -0.105827 0
7.4607e-14 -0.123222 0
-0.00123306 -0.105827 0
0.000818851 -0.0940255 0
-0.0122551 -0.0945907 -3.37508e-14
-0.0118183 -0.102877 -2.57572e-14
4.79616e-14 -0.119522 7.10543e-15
0.0118183 -0.102877 1.42109e-14
0.0122551 -0.0945907 -2.04281e-14
0 0 0
0 0 0
0 0 0
0 0 0
0 0 0
0.00148811 -0.000600797 -0.000509782
0.00144397 -0.00175506 -0.000919529
-4.35207e-14 -0.00516372 -0.000973323
-0.00144397 -0.00175506 -0.000919529
-0.00148811 -0.000600797 -0.000509782
      </DataArray> 
      <DataArray type="Float64" NumberOfComponents="3" Name="Velocity" format="ascii">
0 0 0
0 0 0
0 0 0
0 0 0
0 0 0
-0.00167432 0.00180075 -6.13617e-05
-0.00157246 0.00336957 -6.81522e-05
2.40216e-14 0.00606074 -0.000135995
0.00157246 0.00336957 -6.81522e-05
0.00167432 0.00180075 -6.13617e-05
-9.55546e-05 0.00526149 0
0.00080567 0.00457605 0
1.06763e-14 0.00366034 0
-0.00080567 0.00457605 0
9.55546e-05 0.00526149 0
-0.000875716 0.00564183 7.1175e-15
-0.000256574 0.00435275 -4.44844e-15
-1.77938e-15 0.00387046 5.33813e-15
0.000256574 0.00435275 8.89688e-15
0.000875716 0.00564183 6.22781e-15
0 0 0
0 0 0
0 0 0
0 0 0
0 0 0
-0.00167432 0.00180075 6.13617e-05
-0.00157246 0.00336957 6.81522e-05
4.35947e-14 0.00606074 0.000135995
0.00157246 0.00336957 6.81522e-05
0.00167432 0.00180075 6.13617e-05
      </DataArray> 
      <DataArray type="Float64" NumberOfComponents="3" Name="Acceleration" format="ascii">
0 0 0
0 0 0
0 0 0
0 0 0
0 0 0
-0.00043167 -0.00565127 2.03669e-05
-0.000916446 -0.00352996 -8.37228e-05
2.39808e-14 -0.000841538 -5.98e-05
0.000916446 -0.00352996 -8.37228e-05
0.00043167 -0.00565127 2.03669e-05
0.00134859 -0.000466266 0
-0.000910596 0.00140434 0
-1.06581e-14 0.00310554 0
0.000910596 0.00140434 0
-0.00134859 -0.000466266 0
0.000562336 0.00138865 1.24345e-14
-6.75631e-05 0.00113097 6.21725e-15
1.24345e-14 1.56841e-06 -9.6241e-29
6.75631e-05 0.00113097 2.68213e-29
-0.000562336 0.00138865 7.99361e-15
0 0 0
0 0 0
0 0 0
0 0 0
0 0 0
-0.00043167 -0.00565127 -2.03669e-05
-0.000916446 -0.00352996 8.37228e-05
-7.99361e-15 -0.000841538 5.98e-05
0.000916446 -0.00352996 8.37228e-05
0.00043167 -0.00565127 -2.03669e-05
      </DataArray> 
    </PointData>
    <CellData>
    </CellData>
  </Piece>
  </UnstructuredGrid>
</VTKFile>
