<?xml version="1.0"?>
<VTKFile type="UnstructuredGrid">
  <UnstructuredGrid>
  <Piece NumberOfPoints="30"  NumberOfCells="85">
    <Points>
      <DataArray type="Float64" NumberOfComponents="3" format="ascii">
0 0 0
4 0 0
8 0 0
12 0 0
16 0 0
16.0008 2.99819 3.69652e-05
12.0004 2.99877 -0.000908387
8 2.98815 0.000171576
3.99958 2.99877 -0.000908387
-0.000790842 2.99819 3.69652e-05
0.000807582 -0.0339446 8
4.00262 -0.017299 8
8 -0.0150057 8
11.9974 -0.017299 8
15.9992 -0.0339446 8
16.0053 2.96531 8
12.0016 2.98209 8
8 2.98223 8
3.99844 2.98209 8
-0.00532428 2.96531 8
0 0 16
4 0 16
8 0 16
12 0 16
16 0 16
16.0008 2.99819 16
12.0004 2.99877 16.0009
8 2.98815 15.9998
3.99958 2.99877 16.0009
-0.000790842 2.99819 16
      </DataArray>
    </Points>
    <Cells>
      <DataArray type="Int32" Name="connectivity" format="ascii">
0 1
1 2
2 3
3 4
4 5
5 6
6 7
7 8
8 9
9 0
8 1
7 2
6 3
10 11
11 12
12 13
13 14
14 15
15 16
16 17
17 18
18 19
19 10
18 11
17 12
16 13
20 21
21 22
22 23
23 24
24 25
25 26
26 27
27 28
28 29
20 29
28 21
22 27
23 26
20 10
10 0
29 19
19 9
21 11
28 18
11 1
18 8
22 12
27 17
12 2
17 7
23 13
26 16
13 3
16 6
24 14
25 15
15 5
14 4
25 23
29 21
19 11
9 1
15 13
5 3
8 2
6 2
18 12
16 12
28 22
26 22
19 20
19 0
21 18
18 1
22 17
17 2
23 16
16 3
15 24
15 4
20 18
18 0
24 16
16 4
      </DataArray>
      <DataArray type="Int32" Name="offsets" format="ascii">
2
4
6
8
10
12
14
16
18
20
22
24
26
28
30
32
34
36
38
40
42
44
46
48
50
52
54
56
58
60
62
64
66
68
70
72
74
76
78
80
82
84
86
88
90
92
94
96
98
100
102
104
106
108
110
112
114
116
118
120
122
124
126
128
130
132
134
136
138
140
142
144
146
148
150
152
154
156
158
160
162
164
166
168
170
      </DataArray>
      <DataArray type="UInt8" Name="types" format="ascii">
4
4
4
4
4
4
4
4
4
4
4
4
4
4
4
4
4
4
4
4
4
4
4
4
4
4
4
4
4
4
4
4
4
4
4
4
4
4
4
4
4
4
4
4
4
4
4
4
4
4
4
4
4
4
4
4
4
4
4
4
4
4
4
4
4
4
4
4
4
4
4
4
4
4
4
4
4
4
4
4
4
4
4
4
4
      </DataArray>
    </Cells>
    <PointData>
      <DataArray type="Float64" NumberOfComponents="3" Name="Displacement" format="ascii">
0 0 0
0 0 0
0 0 0
0 0 0
0 0 0
0.000790842 -0.00181287 3.69652e-05
0.000421491 -0.00123132 -0.000908387
-9.76996e-15 -0.0118503 0.000171576
-0.000421491 -0.00123132 -0.000908387
-0.000790842 -0.00181287 3.69652e-05
0.000807582 -0.0339446 0
0.00261927 -0.017299 0
9.59233e-14 -0.0150057 0
-0.00261927 -0.017299 0
-0.000807582 -0.0339446 0
0.00532428 -0.0346944 8.88178e-15
0.00156111 -0.0179086 -2.75335e-14
9.59233e-14 -0.0177741 3.55271e-14
-0.00156111 -0.0179086 1.42109e-14
-0.00532428 -0.0346944 -8.88178e-16
0 0 0
0 0 0
0 0 0
0 0 0
0 0 0
0.000790842 -0.00181287 -3.69652e-05
0.000421491 -0.00123132 0.000908387
-2.04281e-14 -0.0118503 -0.000171576
-0.000421491 -0.00123132 0.000908387
-0.000790842 -0.00181287 -3.69652e-05
      </DataArray> 
      <DataArray type="Float64" NumberOfComponents="3" Name="Velocity" format="ascii">
0 0 0
0 0 0
0 0 0
0 0 0
0 0 0
-0.00173692 0.00529476 -4.41638e-05
-0.000191493 0.000372447 0.000288165
2.66906e-15 0.000863399 -4.19994e-05
0.000191493 0.000372447 0.000288165
0.00173692 0.00529476 -4.41638e-05
0.000129378 -0.0030303 0
0.000135699 -0.00623792 0
3.55875e-15 -0.00928072 0
-0.000135699 -0.00623792 0
-0.000129378 -0.0030303 0
-0.00146768 -0.0050454 -3.55875e-14
-0.00185127 -0.00652136 1.33453e-14
4.98225e-14 -0.0118558 1.24556e-14
0.00185127 -0.00652136 2.31319e-14
0.00146768 -0.0050454 -2.04628e-14
0 0 0
0 0 0
0 0 0
0 0 0
0 0 0
-0.00173692 0.00529476 4.41638e-05
-0.000191493 0.000372447 -0.000288165
8.00719e-15 0.000863399 4.19994e-05
0.000191493 0.000372447 -0.000288165
0.00173692 0.00529476 4.41638e-05
      </DataArray> 
      <DataArray type="Float64" NumberOfComponents="3" Name="Acceleration" format="ascii">
0 0 0
0 0 0
0 0 0
0 0 0
0 0 0
-5.84043e-05 -0.00397769 1.19191e-05
0.000119339 -0.00381599 0.000289159
-6.21725e-15 0.00613641 -6.63332e-05
-0.000119339 -0.00381599 0.000289159
5.84043e-05 -0.00397769 1.19191e-05
0.00120625 -0.000641168 0
-0.000875626 -0.00128835 0
-1.06581e-14 -0.00168433 0
0.000875626 -0.00128835 0
-0.00120625 -0.000641168 0
-0.00039928 -0.00035373 1.95399e-14
6.18233e-05 -0.000697042 1.15463e-14
-1.42109e-14 -0.000754308 -3.55271e-15
-6.18233e-05 -0.000697042 -1.06581e-14
0.00039928 -0.00035373 -7.99361e-15
0 0 0
0 0 0
0 0 0
0 0 0
0 0 0
-5.84043e-05 -0.00397769 -1.19191e-05
0.000119339 -0.00381599 -0.000289159
-6.21725e-15 0.00613641 6.63332e-05
-0.000119339 -0.00381599 -0.000289159
5.84043e-05 -0.00397769 -1.19191e-05
      </DataArray> 
    </PointData>
    <CellData>
    </CellData>
  </Piece>
  </UnstructuredGrid>
</VTKFile>
