<?xml version="1.0"?>
<VTKFile type="UnstructuredGrid">
  <UnstructuredGrid>
  <Piece NumberOfPoints="30"  NumberOfCells="85">
    <Points>
      <DataArray type="Float64" NumberOfComponents="3" format="ascii">
0 0 0
4 0 0
8 0 0
12 0 0
16 0 0
15.9996 2.99163 0.000461267
11.9992 2.99505 9.12777e-06
8 2.98833 0.00119841
4.00082 2.99505 9.12777e-06
0.000408848 2.99163 0.000461267
-0.000670695 -0.0849699 8
4.0002 -0.103535 8
8 -0.121246 8
11.9998 -0.103535 8
16.0007 -0.0849699 8
15.9853 2.91372 8
11.9866 2.89926 8
8 2.88072 8
4.01343 2.89926 8
0.014652 2.91372 8
0 0 16
4 0 16
8 0 16
12 0 16
16 0 16
15.9996 2.99163 15.9995
11.9992 2.99505 16
8 2.98833 15.9988
4.00082 2.99505 16
0.000408848 2.99163 15.9995
      </DataArray>
    </Points>
    <Cells>
      <DataArray type="Int32" Name="connectivity" format="ascii">
0 1
1 2
2 3
3 4
4 5
5 6
6 7
7 8
8 9
9 0
8 1
7 2
6 3
10 11
11 12
12 13
13 14
14 15
15 16
16 17
17 18
18 19
19 10
18 11
17 12
16 13
20 21
21 22
22 23
23 24
24 25
25 26
26 27
27 28
28 29
20 29
28 21
22 27
23 26
20 10
10 0
29 19
19 9
21 11
28 18
11 1
18 8
22 12
27 17
12 2
17 7
23 13
26 16
13 3
16 6
24 14
25 15
15 5
14 4
25 23
29 21
19 11
9 1
15 13
5 3
8 2
6 2
18 12
16 12
28 22
26 22
19 20
19 0
21 18
18 1
22 17
17 2
23 16
16 3
15 24
15 4
20 18
18 0
24 16
16 4
      </DataArray>
      <DataArray type="Int32" Name="offsets" format="ascii">
2
4
6
8
10
12
14
16
18
20
22
24
26
28
30
32
34
36
38
40
42
44
46
48
50
52
54
56
58
60
62
64
66
68
70
72
74
76
78
80
82
84
86
88
90
92
94
96
98
100
102
104
106
108
110
112
114
116
118
120
122
124
126
128
130
132
134
136
138
140
142
144
146
148
150
152
154
156
158
160
162
164
166
168
170
      </DataArray>
      <DataArray type="UInt8" Name="types" format="ascii">
4
4
4
4
4
4
4
4
4
4
4
4
4
4
4
4
4
4
4
4
4
4
4
4
4
4
4
4
4
4
4
4
4
4
4
4
4
4
4
4
4
4
4
4
4
4
4
4
4
4
4
4
4
4
4
4
4
4
4
4
4
4
4
4
4
4
4
4
4
4
4
4
4
4
4
4
4
4
4
4
4
4
4
4
4
      </DataArray>
    </Cells>
    <PointData>
      <DataArray type="Float64" NumberOfComponents="3" Name="Displacement" format="ascii">
0 0 0
0 0 0
0 0 0
0 0 0
0 0 0
-0.000408848 -0.00836918 0.000461267
-0.000818714 -0.00494898 9.12777e-06
2.30926e-14 -0.0116737 0.00119841
0.000818714 -0.00494898 9.12777e-06
0.000408848 -0.00836918 0.000461267
-0.000670695 -0.0849699 0
0.000200426 -0.103535 0
-2.21156e-13 -0.121246 0
-0.000200426 -0.103535 0
0.000670695 -0.0849699 0
-0.014652 -0.0862814 -2.84217e-14
-0.0134314 -0.100737 -5.68434e-14
-1.47438e-13 -0.119281 -2.84217e-14
0.0134314 -0.100737 -5.32907e-14
0.014652 -0.0862814 -3.73035e-14
0 0 0
0 0 0
0 0 0
0 0 0
0 0 0
-0.000408848 -0.00836918 -0.000461267
-0.000818714 -0.00494898 -9.12777e-06
-8.88178e-16 -0.0116737 -0.00119841
0.000818714 -0.00494898 -9.12777e-06
0.000408848 -0.00836918 -0.000461267
      </DataArray> 
      <DataArray type="Float64" NumberOfComponents="3" Name="Velocity" format="ascii">
0 0 0
0 0 0
0 0 0
0 0 0
0 0 0
0.00302634 0.00308226 -4.37502e-05
0.00330752 -0.00243462 0.000622116
-8.89688e-15 -0.00176853 -3.61021e-05
-0.00330752 -0.00243462 0.000622116
-0.00302634 0.00308226 -4.37502e-05
5.03853e-05 0.00455782 0
-0.000866699 0.00612633 0
3.55875e-15 0.00787627 0
0.000866699 0.00612633 0
-5.03853e-05 0.00455782 0
0.000739871 0.0047224 3.78653e-29
0.000659277 0.00438383 -2.847e-14
-4.53741e-14 0.00566509 -1.4235e-14
-0.000659277 0.00438383 -1.60144e-14
-0.000739871 0.0047224 -2.66906e-14
0 0 0
0 0 0
0 0 0
0 0 0
0 0 0
0.00302634 0.00308226 4.37502e-05
0.00330752 -0.00243462 -0.000622116
-3.82566e-14 -0.00176853 3.61021e-05
-0.00330752 -0.00243462 -0.000622116
-0.00302634 0.00308226 4.37502e-05
      </DataArray> 
      <DataArray type="Float64" NumberOfComponents="3" Name="Acceleration" format="ascii">
0 0 0
0 0 0
0 0 0
0 0 0
0 0 0
0.00225402 0.00429986 -2.43953e-05
0.00221206 0.000236783 0.000179355
5.32907e-15 0.00595096 -0.000182037
-0.00221206 0.000236783 0.000179355
-0.00225402 0.00429986 -2.43953e-05
0.000590788 -0.00110529 0
-0.000150262 0.00151386 0
2.84217e-14 0.00170287 0
0.000150262 0.00151386 0
-0.000590788 -0.00110529 0
0.000624002 0.00128154 2.4869e-14
0.000387494 0.00117826 -1.42109e-14
-1.86517e-14 0.000772444 1.06581e-14
-0.000387494 0.00117826 2.4869e-14
-0.000624002 0.00128154 8.88178e-15
0 0 0
0 0 0
0 0 0
0 0 0
0 0 0
0.00225402 0.00429986 2.43953e-05
0.00221206 0.000236783 -0.000179355
3.4639e-14 0.00595096 0.000182037
-0.00221206 0.000236783 -0.000179355
-0.00225402 0.00429986 2.43953e-05
      </DataArray> 
    </PointData>
    <CellData>
    </CellData>
  </Piece>
  </UnstructuredGrid>
</VTKFile>
