<?xml version="1.0"?>
<VTKFile type="UnstructuredGrid">
  <UnstructuredGrid>
  <Piece NumberOfPoints="30"  NumberOfCells="85">
    <Points>
      <DataArray type="Float64" NumberOfComponents="3" format="ascii">
0 0 0
4 0 0
8 0 0
12 0 0
16 0 0
16.0055 2.98885 -1.08316e-05
12.0027 2.9948 -0.000210167
8 2.99963 5.68708e-05
3.99733 2.9948 -0.000210167
-0.00549301 2.98885 -1.08316e-05
0.00480014 -0.020426 8
4.00268 0.00309594 8
8 0.0153017 8
11.9973 0.00309594 8
15.9952 -0.020426 8
16.0091 2.97999 8
12.006 3.00158 8
8 3.01158 8
3.99398 3.00158 8
-0.00908067 2.97999 8
0 0 16
4 0 16
8 0 16
12 0 16
16 0 16
16.0055 2.98885 16
12.0027 2.9948 16.0002
8 2.99963 15.9999
3.99733 2.9948 16.0002
-0.00549301 2.98885 16
      </DataArray>
    </Points>
    <Cells>
      <DataArray type="Int32" Name="connectivity" format="ascii">
0 1
1 2
2 3
3 4
4 5
5 6
6 7
7 8
8 9
9 0
8 1
7 2
6 3
10 11
11 12
12 13
13 14
14 15
15 16
16 17
17 18
18 19
19 10
18 11
17 12
16 13
20 21
21 22
22 23
23 24
24 25
25 26
26 27
27 28
28 29
20 29
28 21
22 27
23 26
20 10
10 0
29 19
19 9
21 11
28 18
11 1
18 8
22 12
27 17
12 2
17 7
23 13
26 16
13 3
16 6
24 14
25 15
15 5
14 4
25 23
29 21
19 11
9 1
15 13
5 3
8 2
6 2
18 12
16 12
28 22
26 22
19 20
19 0
21 18
18 1
22 17
17 2
23 16
16 3
15 24
15 4
20 18
18 0
24 16
16 4
      </DataArray>
      <DataArray type="Int32" Name="offsets" format="ascii">
2
4
6
8
10
12
14
16
18
20
22
24
26
28
30
32
34
36
38
40
42
44
46
48
50
52
54
56
58
60
62
64
66
68
70
72
74
76
78
80
82
84
86
88
90
92
94
96
98
100
102
104
106
108
110
112
114
116
118
120
122
124
126
128
130
132
134
136
138
140
142
144
146
148
150
152
154
156
158
160
162
164
166
168
170
      </DataArray>
      <DataArray type="UInt8" Name="types" format="ascii">
4
4
4
4
4
4
4
4
4
4
4
4
4
4
4
4
4
4
4
4
4
4
4
4
4
4
4
4
4
4
4
4
4
4
4
4
4
4
4
4
4
4
4
4
4
4
4
4
4
4
4
4
4
4
4
4
4
4
4
4
4
4
4
4
4
4
4
4
4
4
4
4
4
4
4
4
4
4
4
4
4
4
4
4
4
      </DataArray>
    </Cells>
    <PointData>
      <DataArray type="Float64" NumberOfComponents="3" Name="Displacement" format="ascii">
0 0 0
0 0 0
0 0 0
0 0 0
0 0 0
0.00549301 -0.011155 -1.08316e-05
0.0026696 -0.00519625 -0.000210167
8.88178e-15 -0.000372418 5.68708e-05
-0.0026696 -0.00519625 -0.000210167
-0.00549301 -0.011155 -1.08316e-05
0.00480014 -0.020426 0
0.00268088 0.00309594 0
1.77636e-15 0.0153017 0
-0.00268088 0.00309594 0
-0.00480014 -0.020426 0
0.00908067 -0.020014 -3.01981e-14
0.00601934 0.00157736 -1.95399e-14
-6.21725e-15 0.011576 3.55271e-15
-0.00601934 0.00157736 1.24345e-14
-0.00908067 -0.020014 -1.33227e-14
0 0 0
0 0 0
0 0 0
0 0 0
0 0 0
0.00549301 -0.011155 1.08316e-05
0.0026696 -0.00519625 0.000210167
3.37508e-14 -0.000372418 -5.68708e-05
-0.0026696 -0.00519625 0.000210167
-0.00549301 -0.011155 1.08316e-05
      </DataArray> 
      <DataArray type="Float64" NumberOfComponents="3" Name="Velocity" format="ascii">
0 0 0
0 0 0
0 0 0
0 0 0
0 0 0
-0.00381226 -0.00187473 -3.0707e-05
-0.00259822 -0.00150965 -7.4358e-05
1.06763e-14 -0.00214407 3.36431e-05
0.00259822 -0.00150965 -7.4358e-05
0.00381226 -0.00187473 -3.0707e-05
0.000740379 -0.00284816 0
4.77801e-05 -0.00115281 0
-1.24556e-14 -0.000376609 0
-4.77801e-05 -0.00115281 0
-0.000740379 -0.00284816 0
0.000350445 -0.00243941 1.4235e-14
-0.000287782 -0.000805641 -5.33813e-15
2.04628e-14 -0.00265763 7.1175e-15
0.000287782 -0.000805641 8.89688e-15
-0.000350445 -0.00243941 9.78656e-15
0 0 0
0 0 0
0 0 0
0 0 0
0 0 0
-0.00381226 -0.00187473 3.0707e-05
-0.00259822 -0.00150965 7.4358e-05
2.847e-14 -0.00214407 -3.36431e-05
0.00259822 -0.00150965 7.4358e-05
0.00381226 -0.00187473 3.0707e-05
      </DataArray> 
      <DataArray type="Float64" NumberOfComponents="3" Name="Acceleration" format="ascii">
0 0 0
0 0 0
0 0 0
0 0 0
0 0 0
-0.00100534 0.00595749 6.05405e-06
0.000492878 -0.000349819 6.66712e-05
5.32907e-15 -0.00587884 -1.9201e-05
-0.000492878 -0.000349819 6.66712e-05
0.00100534 0.00595749 6.05405e-06
-0.00133775 0.000378478 0
0.00103698 -0.00191869 0
1.77636e-15 -0.00331945 0
-0.00103698 -0.00191869 0
0.00133775 0.000378478 0
-0.000100284 -0.00137582 8.88178e-15
-0.000325627 -0.000869528 5.32907e-15
4.44089e-15 -0.00148079 3.55271e-15
0.000325627 -0.000869528 -1.77636e-15
0.000100284 -0.00137582 4.44089e-15
0 0 0
0 0 0
0 0 0
0 0 0
0 0 0
-0.00100534 0.00595749 -6.05405e-06
0.000492878 -0.000349819 -6.66712e-05
-2.30926e-14 -0.00587884 1.9201e-05
-0.000492878 -0.000349819 -6.66712e-05
0.00100534 0.00595749 -6.05405e-06
      </DataArray> 
    </PointData>
    <CellData>
    </CellData>
  </Piece>
  </UnstructuredGrid>
</VTKFile>
