<?xml version="1.0"?>
<VTKFile type="UnstructuredGrid">
  <UnstructuredGrid>
  <Piece NumberOfPoints="30"  NumberOfCells="85">
    <Points>
      <DataArray type="Float64" NumberOfComponents="3" format="ascii">
0 0 0
4 0 0
8 0 0
12 0 0
16 0 0
16.006 2.99879 0.000190511
12.0055 2.99241 -0.000277408
8 2.99985 -7.87547e-05
3.99448 2.99241 -0.000277408
-0.00598705 2.99879 0.000190511
0.000718161 -0.0553101 8
4.00129 -0.040478 8
8 -0.0394418 8
11.9987 -0.040478 8
15.9993 -0.0553101 8
16.0034 2.94641 8
11.9994 2.95949 8
8 2.95748 8
4.00058 2.95949 8
-0.00338123 2.94641 8
0 0 16
4 0 16
8 0 16
12 0 16
16 0 16
16.006 2.99879 15.9998
12.0055 2.99241 16.0003
8 2.99985 16.0001
3.99448 2.99241 16.0003
-0.00598705 2.99879 15.9998
      </DataArray>
    </Points>
    <Cells>
      <DataArray type="Int32" Name="connectivity" format="ascii">
0 1
1 2
2 3
3 4
4 5
5 6
6 7
7 8
8 9
9 0
8 1
7 2
6 3
10 11
11 12
12 13
13 14
14 15
15 16
16 17
17 18
18 19
19 10
18 11
17 12
16 13
20 21
21 22
22 23
23 24
24 25
25 26
26 27
27 28
28 29
20 29
28 21
22 27
23 26
20 10
10 0
29 19
19 9
21 11
28 18
11 1
18 8
22 12
27 17
12 2
17 7
23 13
26 16
13 3
16 6
24 14
25 15
15 5
14 4
25 23
29 21
19 11
9 1
15 13
5 3
8 2
6 2
18 12
16 12
28 22
26 22
19 20
19 0
21 18
18 1
22 17
17 2
23 16
16 3
15 24
15 4
20 18
18 0
24 16
16 4
      </DataArray>
      <DataArray type="Int32" Name="offsets" format="ascii">
2
4
6
8
10
12
14
16
18
20
22
24
26
28
30
32
34
36
38
40
42
44
46
48
50
52
54
56
58
60
62
64
66
68
70
72
74
76
78
80
82
84
86
88
90
92
94
96
98
100
102
104
106
108
110
112
114
116
118
120
122
124
126
128
130
132
134
136
138
140
142
144
146
148
150
152
154
156
158
160
162
164
166
168
170
      </DataArray>
      <DataArray type="UInt8" Name="types" format="ascii">
4
4
4
4
4
4
4
4
4
4
4
4
4
4
4
4
4
4
4
4
4
4
4
4
4
4
4
4
4
4
4
4
4
4
4
4
4
4
4
4
4
4
4
4
4
4
4
4
4
4
4
4
4
4
4
4
4
4
4
4
4
4
4
4
4
4
4
4
4
4
4
4
4
4
4
4
4
4
4
4
4
4
4
4
4
      </DataArray>
    </Cells>
    <PointData>
      <DataArray type="Float64" NumberOfComponents="3" Name="Displacement" format="ascii">
0 0 0
0 0 0
0 0 0
0 0 0
0 0 0
0.00598705 -0.00121462 0.000190511
0.00551559 -0.00759265 -0.000277408
-1.77636e-14 -0.000145662 -7.87547e-05
-0.00551559 -0.00759265 -0.000277408
-0.00598705 -0.00121462 0.000190511
0.000718161 -0.0553101 0
0.00128731 -0.040478 0
4.79616e-14 -0.0394418 0
-0.00128731 -0.040478 0
-0.000718161 -0.0553101 0
0.00338123 -0.053588 1.95399e-14
-0.000577909 -0.0405051 5.32907e-15
7.81597e-14 -0.0425236 3.55271e-14
0.000577909 -0.0405051 -1.33227e-14
-0.00338123 -0.053588 1.77636e-14
0 0 0
0 0 0
0 0 0
0 0 0
0 0 0
0.00598705 -0.00121462 -0.000190511
0.00551559 -0.00759265 0.000277408
-5.15143e-14 -0.000145662 7.87547e-05
-0.00551559 -0.00759265 0.000277408
-0.00598705 -0.00121462 -0.000190511
      </DataArray> 
      <DataArray type="Float64" NumberOfComponents="3" Name="Velocity" format="ascii">
0 0 0
0 0 0
0 0 0
0 0 0
0 0 0
-0.00286485 0.000219716 0.00010216
-0.00193997 0.000712296 0.00025074
-1.95731e-14 0.000988247 9.25446e-05
0.00193997 0.000712296 0.00025074
0.00286485 0.000219716 0.00010216
0.00132309 -0.0100536 0
-0.000137819 -0.00745503 0
1.24556e-14 -0.00972411 0
0.000137819 -0.00745503 0
-0.00132309 -0.0100536 0
-0.0011835 -0.00884326 1.24556e-14
-0.00123645 -0.00763746 7.1175e-15
3.73669e-14 -0.00959701 3.55875e-15
0.00123645 -0.00763746 8.89688e-16
0.0011835 -0.00884326 7.1175e-15
0 0 0
0 0 0
0 0 0
0 0 0
0 0 0
-0.00286485 0.000219716 -0.00010216
-0.00193997 0.000712296 -0.00025074
-2.66906e-14 0.000988247 -9.25446e-05
0.00193997 0.000712296 -0.00025074
0.00286485 0.000219716 -0.00010216
      </DataArray> 
      <DataArray type="Float64" NumberOfComponents="3" Name="Acceleration" format="ascii">
0 0 0
0 0 0
0 0 0
0 0 0
0 0 0
-0.00230901 -0.00620767 -7.05129e-06
-0.00309548 0.00138532 0.000108196
-3.55271e-15 -0.00612899 7.49573e-05
0.00309548 0.00138532 0.000108196
0.00230901 -0.00620767 -7.05129e-06
0.000387141 0.00150357 0
0.00035216 -0.000938959 0
5.32907e-15 -0.0020908 0
-0.00035216 -0.000938959 0
-0.000387141 0.00150357 0
-0.000448477 -0.000745011 -1.95399e-14
0.000166559 0.000118282 -8.88178e-15
-1.42109e-14 0.000330553 -7.10543e-15
-0.000166559 0.000118282 1.15463e-14
0.000448477 -0.000745011 -1.06581e-14
0 0 0
0 0 0
0 0 0
0 0 0
0 0 0
-0.00230901 -0.00620767 7.05129e-06
-0.00309548 0.00138532 -0.000108196
1.59872e-14 -0.00612899 -7.49573e-05
0.00309548 0.00138532 -0.000108196
0.00230901 -0.00620767 7.05129e-06
      </DataArray> 
    </PointData>
    <CellData>
    </CellData>
  </Piece>
  </UnstructuredGrid>
</VTKFile>
