<?xml version="1.0"?>
<VTKFile type="UnstructuredGrid">
  <UnstructuredGrid>
  <Piece NumberOfPoints="30"  NumberOfCells="85">
    <Points>
      <DataArray type="Float64" NumberOfComponents="3" format="ascii">
0 0 0
4 0 0
8 0 0
12 0 0
16 0 0
16.0084 2.99682 0.000480219
12.0063 2.99464 0.000661966
8 2.99652 0.000228767
3.9937 2.99464 0.000661966
-0.00837959 2.99682 0.000480219
0.0012329 -0.0887077 8
4.00218 -0.082263 8
8 -0.0843253 8
11.9978 -0.082263 8
15.9988 -0.0887077 8
15.9961 2.91414 8
11.994 2.92004 8
8 2.91482 8
4.00599 2.92004 8
0.00386442 2.91414 8
0 0 16
4 0 16
8 0 16
12 0 16
16 0 16
16.0084 2.99682 15.9995
12.0063 2.99464 15.9993
8 2.99652 15.9998
3.9937 2.99464 15.9993
-0.00837959 2.99682 15.9995
      </DataArray>
    </Points>
    <Cells>
      <DataArray type="Int32" Name="connectivity" format="ascii">
0 1
1 2
2 3
3 4
4 5
5 6
6 7
7 8
8 9
9 0
8 1
7 2
6 3
10 11
11 12
12 13
13 14
14 15
15 16
16 17
17 18
18 19
19 10
18 11
17 12
16 13
20 21
21 22
22 23
23 24
24 25
25 26
26 27
27 28
28 29
20 29
28 21
22 27
23 26
20 10
10 0
29 19
19 9
21 11
28 18
11 1
18 8
22 12
27 17
12 2
17 7
23 13
26 16
13 3
16 6
24 14
25 15
15 5
14 4
25 23
29 21
19 11
9 1
15 13
5 3
8 2
6 2
18 12
16 12
28 22
26 22
19 20
19 0
21 18
18 1
22 17
17 2
23 16
16 3
15 24
15 4
20 18
18 0
24 16
16 4
      </DataArray>
      <DataArray type="Int32" Name="offsets" format="ascii">
2
4
6
8
10
12
14
16
18
20
22
24
26
28
30
32
34
36
38
40
42
44
46
48
50
52
54
56
58
60
62
64
66
68
70
72
74
76
78
80
82
84
86
88
90
92
94
96
98
100
102
104
106
108
110
112
114
116
118
120
122
124
126
128
130
132
134
136
138
140
142
144
146
148
150
152
154
156
158
160
162
164
166
168
170
      </DataArray>
      <DataArray type="UInt8" Name="types" format="ascii">
4
4
4
4
4
4
4
4
4
4
4
4
4
4
4
4
4
4
4
4
4
4
4
4
4
4
4
4
4
4
4
4
4
4
4
4
4
4
4
4
4
4
4
4
4
4
4
4
4
4
4
4
4
4
4
4
4
4
4
4
4
4
4
4
4
4
4
4
4
4
4
4
4
4
4
4
4
4
4
4
4
4
4
4
4
      </DataArray>
    </Cells>
    <PointData>
      <DataArray type="Float64" NumberOfComponents="3" Name="Displacement" format="ascii">
0 0 0
0 0 0
0 0 0
0 0 0
0 0 0
0.00837959 -0.00317697 0.000480219
0.00629641 -0.00535752 0.000661966
1.77636e-14 -0.00347732 0.000228767
-0.00629641 -0.00535752 0.000661966
-0.00837959 -0.00317697 0.000480219
0.0012329 -0.0887077 0
0.00218332 -0.082263 0
-1.14575e-13 -0.0843253 0
-0.00218332 -0.082263 0
-0.0012329 -0.0887077 0
-0.00386442 -0.0858578 -4.35207e-14
-0.00599294 -0.0799585 -4.08562e-14
-9.50351e-14 -0.0851806 2.30926e-14
0.00599294 -0.0799585 1.42109e-14
0.00386442 -0.0858578 -2.22045e-14
0 0 0
0 0 0
0 0 0
0 0 0
0 0 0
0.00837959 -0.00317697 -0.000480219
0.00629641 -0.00535752 -0.000661966
4.08562e-14 -0.00347732 -0.000228767
-0.00629641 -0.00535752 -0.000661966
-0.00837959 -0.00317697 -0.000480219
      </DataArray> 
      <DataArray type="Float64" NumberOfComponents="3" Name="Velocity" format="ascii">
0 0 0
0 0 0
0 0 0
0 0 0
0 0 0
0.00118295 -0.00299784 -8.58204e-05
-0.00036116 0.0018022 0.000121202
3.91463e-14 -0.00549279 2.64257e-06
0.00036116 0.0018022 0.000121202
-0.00118295 -0.00299784 -8.58204e-05
-0.000303289 0.00777251 0
-0.00108713 0.00693469 0
2.66906e-14 0.00791877 0
0.00108713 0.00693469 0
0.000303289 0.00777251 0
0.000598613 0.00850823 -9.78656e-15
0.000883775 0.00734605 3.55875e-15
-8.89688e-15 0.00844626 -3.55875e-15
-0.000883775 0.00734605 3.55875e-15
-0.000598613 0.00850823 -8.89688e-16
0 0 0
0 0 0
0 0 0
0 0 0
0 0 0
0.00118295 -0.00299784 8.58204e-05
-0.00036116 0.0018022 -0.000121202
3.73669e-14 -0.00549279 -2.64257e-06
0.00036116 0.0018022 -0.000121202
-0.00118295 -0.00299784 8.58204e-05
      </DataArray> 
      <DataArray type="Float64" NumberOfComponents="3" Name="Acceleration" format="ascii">
0 0 0
0 0 0
0 0 0
0 0 0
0 0 0
-0.00386669 -0.00452103 -1.60402e-05
-0.00336491 -0.00105764 -9.48245e-05
1.42109e-14 -0.00261713 7.57428e-05
0.00336491 -0.00105764 -9.48245e-05
0.00386669 -0.00452103 -1.60402e-05
0.000625575 0.00248727 0
-0.00041906 0.000658726 0
-3.55271e-15 -0.00130643 0
0.00041906 0.000658726 0
-0.000625575 0.00248727 0
3.16993e-05 -0.000190631 1.33227e-14
0.000300996 0.00106167 1.24345e-14
-2.30926e-14 0.000887293 -5.32907e-15
-0.000300996 0.00106167 -1.42109e-14
-3.16993e-05 -0.000190631 6.21725e-15
0 0 0
0 0 0
0 0 0
0 0 0
0 0 0
-0.00386669 -0.00452103 1.60402e-05
-0.00336491 -0.00105764 9.48245e-05
-1.59872e-14 -0.00261713 -7.57428e-05
0.00336491 -0.00105764 9.48245e-05
0.00386669 -0.00452103 1.60402e-05
      </DataArray> 
    </PointData>
    <CellData>
    </CellData>
  </Piece>
  </UnstructuredGrid>
</VTKFile>
