<?xml version="1.0"?>
<VTKFile type="UnstructuredGrid">
  <UnstructuredGrid>
  <Piece NumberOfPoints="30"  NumberOfCells="85">
    <Points>
      <DataArray type="Float64" NumberOfComponents="3" format="ascii">
0 0 0
4 0 0
8 0 0
12 0 0
16 0 0
16.0017 2.99948 0.000158274
12.0015 2.99842 0.000102906
8 2.99548 0.000489985
3.99848 2.99842 0.000102906
-0.0016537 2.99948 0.000158274
0.000991484 -0.0627196 8
4.00177 -0.0720712 8
8 -0.0904414 8
11.9982 -0.0720712 8
15.999 -0.0627196 8
15.9897 2.93599 8
11.9898 2.92805 8
8 2.90786 8
4.01016 2.92805 8
0.010261 2.93599 8
0 0 16
4 0 16
8 0 16
12 0 16
16 0 16
16.0017 2.99948 15.9998
12.0015 2.99842 15.9999
8 2.99548 15.9995
3.99848 2.99842 15.9999
-0.0016537 2.99948 15.9998
      </DataArray>
    </Points>
    <Cells>
      <DataArray type="Int32" Name="connectivity" format="ascii">
0 1
1 2
2 3
3 4
4 5
5 6
6 7
7 8
8 9
9 0
8 1
7 2
6 3
10 11
11 12
12 13
13 14
14 15
15 16
16 17
17 18
18 19
19 10
18 11
17 12
16 13
20 21
21 22
22 23
23 24
24 25
25 26
26 27
27 28
28 29
20 29
28 21
22 27
23 26
20 10
10 0
29 19
19 9
21 11
28 18
11 1
18 8
22 12
27 17
12 2
17 7
23 13
26 16
13 3
16 6
24 14
25 15
15 5
14 4
25 23
29 21
19 11
9 1
15 13
5 3
8 2
6 2
18 12
16 12
28 22
26 22
19 20
19 0
21 18
18 1
22 17
17 2
23 16
16 3
15 24
15 4
20 18
18 0
24 16
16 4
      </DataArray>
      <DataArray type="Int32" Name="offsets" format="ascii">
2
4
6
8
10
12
14
16
18
20
22
24
26
28
30
32
34
36
38
40
42
44
46
48
50
52
54
56
58
60
62
64
66
68
70
72
74
76
78
80
82
84
86
88
90
92
94
96
98
100
102
104
106
108
110
112
114
116
118
120
122
124
126
128
130
132
134
136
138
140
142
144
146
148
150
152
154
156
158
160
162
164
166
168
170
      </DataArray>
      <DataArray type="UInt8" Name="types" format="ascii">
4
4
4
4
4
4
4
4
4
4
4
4
4
4
4
4
4
4
4
4
4
4
4
4
4
4
4
4
4
4
4
4
4
4
4
4
4
4
4
4
4
4
4
4
4
4
4
4
4
4
4
4
4
4
4
4
4
4
4
4
4
4
4
4
4
4
4
4
4
4
4
4
4
4
4
4
4
4
4
4
4
4
4
4
4
      </DataArray>
    </Cells>
    <PointData>
      <DataArray type="Float64" NumberOfComponents="3" Name="Displacement" format="ascii">
0 0 0
0 0 0
0 0 0
0 0 0
0 0 0
0.0016537 -0.000520438 0.000158274
0.00152388 -0.00158076 0.000102906
-9.76996e-15 -0.00451556 0.000489985
-0.00152388 -0.00158076 0.000102906
-0.0016537 -0.000520438 0.000158274
0.000991484 -0.0627196 0
0.00176825 -0.0720712 0
-2.75335e-14 -0.0904414 0
-0.00176825 -0.0720712 0
-0.000991484 -0.0627196 0
-0.010261 -0.0640094 -2.13163e-14
-0.0101557 -0.0719534 3.01981e-14
-4.26326e-14 -0.0921406 -3.28626e-14
0.0101557 -0.0719534 -2.57572e-14
0.010261 -0.0640094 -3.19744e-14
0 0 0
0 0 0
0 0 0
0 0 0
0 0 0
0.0016537 -0.000520438 -0.000158274
0.00152388 -0.00158076 -0.000102906
-4.08562e-14 -0.00451556 -0.000489985
-0.00152388 -0.00158076 -0.000102906
-0.0016537 -0.000520438 -0.000158274
      </DataArray> 
      <DataArray type="Float64" NumberOfComponents="3" Name="Velocity" format="ascii">
0 0 0
0 0 0
0 0 0
0 0 0
0 0 0
0.00198303 -0.000844865 -2.40847e-05
0.00193557 -0.00302511 -0.000109768
-9.78656e-15 0.0058836 -0.000193759
-0.00193557 -0.00302511 -0.000109768
-0.00198303 -0.000844865 -2.40847e-05
-0.000626399 0.00792915 0
0.00108382 0.00832304 0
8.89688e-16 0.0111159 0
-0.00108382 0.00832304 0
0.000626399 0.00792915 0
0.000596405 0.00706277 -7.88861e-31
0.000137524 0.00811778 -1.06763e-14
-7.1175e-15 0.00888046 -2.66906e-15
-0.000137524 0.00811778 -8.89688e-16
-0.000596405 0.00706277 5.33813e-15
0 0 0
0 0 0
0 0 0
0 0 0
0 0 0
0.00198303 -0.000844865 2.40847e-05
0.00193557 -0.00302511 0.000109768
-1.77938e-15 0.0058836 0.000193759
-0.00193557 -0.00302511 0.000109768
-0.00198303 -0.000844865 2.40847e-05
      </DataArray> 
      <DataArray type="Float64" NumberOfComponents="3" Name="Acceleration" format="ascii">
0 0 0
0 0 0
0 0 0
0 0 0
0 0 0
-0.000582728 -0.00579677 3.84541e-05
-0.000980349 -0.00372695 6.73659e-05
-2.66454e-15 -0.0015214 -3.43816e-06
0.000980349 -0.00372695 6.73659e-05
0.000582728 -0.00579677 3.84541e-05
0.000510422 -0.00110839 0
-0.000595918 -0.000351517 0
-6.21725e-15 0.000257967 0
0.000595918 -0.000351517 0
-0.000510422 -0.00110839 0
0.000435296 0.000616056 3.55271e-15
0.000314295 0.000730917 -5.32907e-15
3.55271e-15 0.00148907 6.21725e-15
-0.000314295 0.000730917 6.21725e-15
-0.000435296 0.000616056 7.10543e-15
0 0 0
0 0 0
0 0 0
0 0 0
0 0 0
-0.000582728 -0.00579677 -3.84541e-05
-0.000980349 -0.00372695 -6.73659e-05
1.95399e-14 -0.0015214 3.43816e-06
0.000980349 -0.00372695 -6.73659e-05
0.000582728 -0.00579677 -3.84541e-05
      </DataArray> 
    </PointData>
    <CellData>
    </CellData>
  </Piece>
  </UnstructuredGrid>
</VTKFile>
