<?xml version="1.0"?>
<VTKFile type="UnstructuredGrid">
  <UnstructuredGrid>
  <Piece NumberOfPoints="30"  NumberOfCells="85">
    <Points>
      <DataArray type="Float64" NumberOfComponents="3" format="ascii">
0 0 0
4 0 0
8 0 0
12 0 0
16 0 0
16.0063 2.99786 0.000133311
12.005 2.9957 6.60316e-06
8 2.9893 -0.000106963
3.99504 2.9957 6.60316e-06
-0.00628081 2.99786 0.000133311
0.00476833 -0.0513615 8
4.00346 -0.0331307 8
8 -0.0293668 8
11.9965 -0.0331307 8
15.9952 -0.0513615 8
16.004 2.94996 8
12.0013 2.96753 8
8 2.97058 8
3.99868 2.96753 8
-0.00395824 2.94996 8
0 0 16
4 0 16
8 0 16
12 0 16
16 0 16
16.0063 2.99786 15.9999
12.005 2.9957 16
8 2.9893 16.0001
3.99504 2.9957 16
-0.00628081 2.99786 15.9999
      </DataArray>
    </Points>
    <Cells>
      <DataArray type="Int32" Name="connectivity" format="ascii">
0 1
1 2
2 3
3 4
4 5
5 6
6 7
7 8
8 9
9 0
8 1
7 2
6 3
10 11
11 12
12 13
13 14
14 15
15 16
16 17
17 18
18 19
19 10
18 11
17 12
16 13
20 21
21 22
22 23
23 24
24 25
25 26
26 27
27 28
28 29
20 29
28 21
22 27
23 26
20 10
10 0
29 19
19 9
21 11
28 18
11 1
18 8
22 12
27 17
12 2
17 7
23 13
26 16
13 3
16 6
24 14
25 15
15 5
14 4
25 23
29 21
19 11
9 1
15 13
5 3
8 2
6 2
18 12
16 12
28 22
26 22
19 20
19 0
21 18
18 1
22 17
17 2
23 16
16 3
15 24
15 4
20 18
18 0
24 16
16 4
      </DataArray>
      <DataArray type="Int32" Name="offsets" format="ascii">
2
4
6
8
10
12
14
16
18
20
22
24
26
28
30
32
34
36
38
40
42
44
46
48
50
52
54
56
58
60
62
64
66
68
70
72
74
76
78
80
82
84
86
88
90
92
94
96
98
100
102
104
106
108
110
112
114
116
118
120
122
124
126
128
130
132
134
136
138
140
142
144
146
148
150
152
154
156
158
160
162
164
166
168
170
      </DataArray>
      <DataArray type="UInt8" Name="types" format="ascii">
4
4
4
4
4
4
4
4
4
4
4
4
4
4
4
4
4
4
4
4
4
4
4
4
4
4
4
4
4
4
4
4
4
4
4
4
4
4
4
4
4
4
4
4
4
4
4
4
4
4
4
4
4
4
4
4
4
4
4
4
4
4
4
4
4
4
4
4
4
4
4
4
4
4
4
4
4
4
4
4
4
4
4
4
4
      </DataArray>
    </Cells>
    <PointData>
      <DataArray type="Float64" NumberOfComponents="3" Name="Displacement" format="ascii">
0 0 0
0 0 0
0 0 0
0 0 0
0 0 0
0.00628081 -0.00213853 0.000133311
0.00495813 -0.00430253 6.60316e-06
-1.15463e-14 -0.0106953 -0.000106963
-0.00495813 -0.00430253 6.60316e-06
-0.00628081 -0.00213853 0.000133311
0.00476833 -0.0513615 0
0.00345575 -0.0331307 0
0 -0.0293668 0
-0.00345575 -0.0331307 0
-0.00476833 -0.0513615 0
0.00395824 -0.0500408 -1.77636e-15
0.00131913 -0.0324732 -8.88178e-16
7.10543e-15 -0.029421 -3.55271e-15
-0.00131913 -0.0324732 3.55271e-15
-0.00395824 -0.0500408 2.13163e-14
0 0 0
0 0 0
0 0 0
0 0 0
0 0 0
0.00628081 -0.00213853 -0.000133311
0.00495813 -0.00430253 -6.60316e-06
-7.99361e-15 -0.0106953 0.000106963
-0.00495813 -0.00430253 -6.60316e-06
-0.00628081 -0.00213853 -0.000133311
      </DataArray> 
      <DataArray type="Float64" NumberOfComponents="3" Name="Velocity" format="ascii">
0 0 0
0 0 0
0 0 0
0 0 0
0 0 0
0.00215024 -0.000129854 -4.24358e-05
0.00222189 -0.00339305 -4.13021e-05
6.22781e-15 -0.00374474 1.48441e-05
-0.00222189 -0.00339305 -4.13021e-05
-0.00215024 -0.000129854 -4.24358e-05
-0.00030293 0.00634257 0
0.00134324 0.00884668 0
-7.1175e-15 0.0087768 0
-0.00134324 0.00884668 0
0.00030293 0.00634257 0
0.00185767 0.00550461 -1.77938e-15
0.00170861 0.00855374 4.44844e-15
1.77938e-15 0.0109491 1.77938e-15
-0.00170861 0.00855374 -1.77938e-15
-0.00185767 0.00550461 -7.99584e-31
0 0 0
0 0 0
0 0 0
0 0 0
0 0 0
0.00215024 -0.000129854 4.24358e-05
0.00222189 -0.00339305 4.13021e-05
8.00719e-15 -0.00374474 -1.48441e-05
-0.00222189 -0.00339305 4.13021e-05
-0.00215024 -0.000129854 4.24358e-05
      </DataArray> 
      <DataArray type="Float64" NumberOfComponents="3" Name="Acceleration" format="ascii">
0 0 0
0 0 0
0 0 0
0 0 0
0 0 0
-0.00278935 -0.00517084 3.91862e-06
-0.00283085 -0.00180675 1.36399e-05
2.66454e-15 0.00494484 5.06959e-05
0.00283085 -0.00180675 1.36399e-05
0.00278935 -0.00517084 3.91862e-06
-0.000831959 0.00115721 0
0.000234419 -0.00052058 0
3.55271e-15 -0.000340441 0
-0.000234419 -0.00052058 0
0.000831959 0.00115721 0
8.97207e-07 -0.000690573 5.32907e-15
-0.000445005 -0.000411725 -8.88178e-16
-3.55271e-15 -0.00153768 -3.55271e-15
0.000445005 -0.000411725 -9.46633e-30
-8.97207e-07 -0.000690573 -3.55271e-15
0 0 0
0 0 0
0 0 0
0 0 0
0 0 0
-0.00278935 -0.00517084 -3.91862e-06
-0.00283085 -0.00180675 -1.36399e-05
-8.88178e-16 0.00494484 -5.06959e-05
0.00283085 -0.00180675 -1.36399e-05
0.00278935 -0.00517084 -3.91862e-06
      </DataArray> 
    </PointData>
    <CellData>
    </CellData>
  </Piece>
  </UnstructuredGrid>
</VTKFile>
