<?xml version="1.0"?>
<VTKFile type="UnstructuredGrid">
  <UnstructuredGrid>
  <Piece NumberOfPoints="30"  NumberOfCells="85">
    <Points>
      <DataArray type="Float64" NumberOfComponents="3" format="ascii">
0 0 0
4 0 0
8 0 0
12 0 0
16 0 0
16.0005 2.99227 0.000806402
11.9998 2.996 0.000632698
8 2.99501 0.000770268
4.00023 2.996 0.000632698
-0.00054523 2.99227 0.000806402
0.00347083 -0.106607 8
4.00498 -0.104189 8
8 -0.121164 8
11.995 -0.104189 8
15.9965 -0.106607 8
15.9905 2.89386 8
11.9889 2.89911 8
8 2.88091 8
4.01112 2.89911 8
0.00948003 2.89386 8
0 0 16
4 0 16
8 0 16
12 0 16
16 0 16
16.0005 2.99227 15.9992
11.9998 2.996 15.9994
8 2.99501 15.9992
4.00023 2.996 15.9994
-0.00054523 2.99227 15.9992
      </DataArray>
    </Points>
    <Cells>
      <DataArray type="Int32" Name="connectivity" format="ascii">
0 1
1 2
2 3
3 4
4 5
5 6
6 7
7 8
8 9
9 0
8 1
7 2
6 3
10 11
11 12
12 13
13 14
14 15
15 16
16 17
17 18
18 19
19 10
18 11
17 12
16 13
20 21
21 22
22 23
23 24
24 25
25 26
26 27
27 28
28 29
20 29
28 21
22 27
23 26
20 10
10 0
29 19
19 9
21 11
28 18
11 1
18 8
22 12
27 17
12 2
17 7
23 13
26 16
13 3
16 6
24 14
25 15
15 5
14 4
25 23
29 21
19 11
9 1
15 13
5 3
8 2
6 2
18 12
16 12
28 22
26 22
19 20
19 0
21 18
18 1
22 17
17 2
23 16
16 3
15 24
15 4
20 18
18 0
24 16
16 4
      </DataArray>
      <DataArray type="Int32" Name="offsets" format="ascii">
2
4
6
8
10
12
14
16
18
20
22
24
26
28
30
32
34
36
38
40
42
44
46
48
50
52
54
56
58
60
62
64
66
68
70
72
74
76
78
80
82
84
86
88
90
92
94
96
98
100
102
104
106
108
110
112
114
116
118
120
122
124
126
128
130
132
134
136
138
140
142
144
146
148
150
152
154
156
158
160
162
164
166
168
170
      </DataArray>
      <DataArray type="UInt8" Name="types" format="ascii">
4
4
4
4
4
4
4
4
4
4
4
4
4
4
4
4
4
4
4
4
4
4
4
4
4
4
4
4
4
4
4
4
4
4
4
4
4
4
4
4
4
4
4
4
4
4
4
4
4
4
4
4
4
4
4
4
4
4
4
4
4
4
4
4
4
4
4
4
4
4
4
4
4
4
4
4
4
4
4
4
4
4
4
4
4
      </DataArray>
    </Cells>
    <PointData>
      <DataArray type="Float64" NumberOfComponents="3" Name="Displacement" format="ascii">
0 0 0
0 0 0
0 0 0
0 0 0
0 0 0
0.00054523 -0.00773353 0.000806402
-0.000231471 -0.00399724 0.000632698
1.59872e-14 -0.00499314 0.000770268
0.000231471 -0.00399724 0.000632698
-0.00054523 -0.00773353 0.000806402
0.00347083 -0.106607 0
0.00498484 -0.104189 0
1.1191e-13 -0.121164 0
-0.00498484 -0.104189 0
-0.00347083 -0.106607 0
-0.00948003 -0.106139 1.24345e-14
-0.0111235 -0.100893 4.44089e-14
6.39488e-14 -0.119085 -8.88178e-16
0.0111235 -0.100893 1.59872e-14
0.00948003 -0.106139 2.13163e-14
0 0 0
0 0 0
0 0 0
0 0 0
0 0 0
0.00054523 -0.00773353 -0.000806402
-0.000231471 -0.00399724 -0.000632698
3.19744e-14 -0.00499314 -0.000770268
0.000231471 -0.00399724 -0.000632698
-0.00054523 -0.00773353 -0.000806402
      </DataArray> 
      <DataArray type="Float64" NumberOfComponents="3" Name="Velocity" format="ascii">
0 0 0
0 0 0
0 0 0
0 0 0
0 0 0
-0.00488429 -0.00235418 3.51563e-05
-0.00329162 -0.00236998 -0.000377988
4.62638e-14 -0.00603016 7.14011e-05
0.00329162 -0.00236998 -0.000377988
0.00488429 -0.00235418 3.51563e-05
-0.000757442 -0.00185927 0
-0.000990331 -0.00432326 0
8.89688e-15 -0.00407622 0
0.000990331 -0.00432326 0
0.000757442 -0.00185927 0
-0.00160484 -0.00101878 -3.02494e-14
-0.00109644 -0.00495783 -3.20288e-14
-2.847e-14 -0.00587666 -6.22781e-15
0.00109644 -0.00495783 -7.1175e-15
0.00160484 -0.00101878 -2.49113e-14
0 0 0
0 0 0
0 0 0
0 0 0
0 0 0
-0.00488429 -0.00235418 -3.51563e-05
-0.00329162 -0.00236998 0.000377988
2.49113e-14 -0.00603016 -7.14011e-05
0.00329162 -0.00236998 0.000377988
0.00488429 -0.00235418 -3.51563e-05
      </DataArray> 
      <DataArray type="Float64" NumberOfComponents="3" Name="Acceleration" format="ascii">
0 0 0
0 0 0
0 0 0
0 0 0
0 0 0
0.00143274 0.00325989 -7.06076e-05
0.0016637 -0.000862745 -1.11345e-05
-5.32907e-15 -0.00102328 1.84629e-05
-0.0016637 -0.000862745 -1.11345e-05
-0.00143274 0.00325989 -7.06076e-05
0.000989057 0.000419061 0
-0.00159437 0.00100949 0
-5.32907e-15 0.00241309 0
0.00159437 0.00100949 0
-0.000989057 0.000419061 0
0.000452542 0.00177129 8.88178e-15
0.000190464 0.000916445 1.77636e-15
7.10543e-15 0.000724035 1.33227e-14
-0.000190464 0.000916445 -8.88178e-15
-0.000452542 0.00177129 -1.06581e-14
0 0 0
0 0 0
0 0 0
0 0 0
0 0 0
0.00143274 0.00325989 7.06076e-05
0.0016637 -0.000862745 1.11345e-05
-1.06581e-14 -0.00102328 -1.84629e-05
-0.0016637 -0.000862745 1.11345e-05
-0.00143274 0.00325989 7.06076e-05
      </DataArray> 
    </PointData>
    <CellData>
    </CellData>
  </Piece>
  </UnstructuredGrid>
</VTKFile>
