<?xml version="1.0"?>
<VTKFile type="UnstructuredGrid">
  <UnstructuredGrid>
  <Piece NumberOfPoints="30"  NumberOfCells="85">
    <Points>
      <DataArray type="Float64" NumberOfComponents="3" format="ascii">
0 0 0
4 0 0
8 0 0
12 0 0
16 0 0
16.005 2.99121 6.99003e-05
12.0027 2.99539 0.00102764
8 2.98896 0.000393797
3.99733 2.99539 0.00102764
-0.00502346 2.99121 6.99003e-05
-0.00251397 -0.0464146 8
3.99985 -0.0487688 8
8 -0.054771 8
12.0001 -0.0487688 8
16.0025 -0.0464146 8
15.9979 2.95272 8
11.997 2.95168 8
8 2.94644 8
4.00296 2.95168 8
0.00207201 2.95272 8
0 0 16
4 0 16
8 0 16
12 0 16
16 0 16
16.005 2.99121 15.9999
12.0027 2.99539 15.999
8 2.98896 15.9996
3.99733 2.99539 15.999
-0.00502346 2.99121 15.9999
      </DataArray>
    </Points>
    <Cells>
      <DataArray type="Int32" Name="connectivity" format="ascii">
0 1
1 2
2 3
3 4
4 5
5 6
6 7
7 8
8 9
9 0
8 1
7 2
6 3
10 11
11 12
12 13
13 14
14 15
15 16
16 17
17 18
18 19
19 10
18 11
17 12
16 13
20 21
21 22
22 23
23 24
24 25
25 26
26 27
27 28
28 29
20 29
28 21
22 27
23 26
20 10
10 0
29 19
19 9
21 11
28 18
11 1
18 8
22 12
27 17
12 2
17 7
23 13
26 16
13 3
16 6
24 14
25 15
15 5
14 4
25 23
29 21
19 11
9 1
15 13
5 3
8 2
6 2
18 12
16 12
28 22
26 22
19 20
19 0
21 18
18 1
22 17
17 2
23 16
16 3
15 24
15 4
20 18
18 0
24 16
16 4
      </DataArray>
      <DataArray type="Int32" Name="offsets" format="ascii">
2
4
6
8
10
12
14
16
18
20
22
24
26
28
30
32
34
36
38
40
42
44
46
48
50
52
54
56
58
60
62
64
66
68
70
72
74
76
78
80
82
84
86
88
90
92
94
96
98
100
102
104
106
108
110
112
114
116
118
120
122
124
126
128
130
132
134
136
138
140
142
144
146
148
150
152
154
156
158
160
162
164
166
168
170
      </DataArray>
      <DataArray type="UInt8" Name="types" format="ascii">
4
4
4
4
4
4
4
4
4
4
4
4
4
4
4
4
4
4
4
4
4
4
4
4
4
4
4
4
4
4
4
4
4
4
4
4
4
4
4
4
4
4
4
4
4
4
4
4
4
4
4
4
4
4
4
4
4
4
4
4
4
4
4
4
4
4
4
4
4
4
4
4
4
4
4
4
4
4
4
4
4
4
4
4
4
      </DataArray>
    </Cells>
    <PointData>
      <DataArray type="Float64" NumberOfComponents="3" Name="Displacement" format="ascii">
0 0 0
0 0 0
0 0 0
0 0 0
0 0 0
0.00502346 -0.00879322 6.99003e-05
0.00266785 -0.00460991 0.00102764
-2.57572e-14 -0.0110377 0.000393797
-0.00266785 -0.00460991 0.00102764
-0.00502346 -0.00879322 6.99003e-05
-0.00251397 -0.0464146 0
-0.00014683 -0.0487688 0
6.03961e-14 -0.054771 0
0.00014683 -0.0487688 0
0.00251397 -0.0464146 0
-0.00207201 -0.0472826 1.77636e-14
-0.00295558 -0.0483175 -6.75016e-14
-1.42109e-14 -0.0535598 5.86198e-14
0.00295558 -0.0483175 -3.81917e-14
0.00207201 -0.0472826 -1.95399e-14
0 0 0
0 0 0
0 0 0
0 0 0
0 0 0
0.00502346 -0.00879322 -6.99003e-05
0.00266785 -0.00460991 -0.00102764
-3.9968e-14 -0.0110377 -0.000393797
-0.00266785 -0.00460991 -0.00102764
-0.00502346 -0.00879322 -6.99003e-05
      </DataArray> 
      <DataArray type="Float64" NumberOfComponents="3" Name="Velocity" format="ascii">
0 0 0
0 0 0
0 0 0
0 0 0
0 0 0
0.00108244 -0.00545504 -5.49102e-05
0.000583474 -0.00404682 -0.000192071
-6.22781e-15 -0.00318566 4.01971e-05
-0.000583474 -0.00404682 -0.000192071
-0.00108244 -0.00545504 -5.49102e-05
0.000911384 0.00819228 0
-0.000149204 0.0086129 0
-1.77938e-14 0.00791224 0
0.000149204 0.0086129 0
-0.000911384 0.00819228 0
0.000385263 0.00964832 1.95731e-14
0.000847214 0.00859319 -3.55875e-15
1.06763e-14 0.00888634 3.55875e-15
-0.000847214 0.00859319 2.40216e-14
-0.000385263 0.00964832 -7.1175e-15
0 0 0
0 0 0
0 0 0
0 0 0
0 0 0
0.00108244 -0.00545504 5.49102e-05
0.000583474 -0.00404682 0.000192071
6.22781e-15 -0.00318566 -4.01971e-05
-0.000583474 -0.00404682 0.000192071
-0.00108244 -0.00545504 5.49102e-05
      </DataArray> 
      <DataArray type="Float64" NumberOfComponents="3" Name="Acceleration" format="ascii">
0 0 0
0 0 0
0 0 0
0 0 0
0 0 0
-0.00115605 0.00324739 1.0327e-05
5.79347e-05 -0.000943062 -0.00028239
4.17444e-14 0.00529626 -0.000108637
-5.79347e-05 -0.000943062 -0.00028239
0.00115605 0.00324739 1.0327e-05
0.00154449 -0.000751851 0
-0.000775027 8.54288e-05 0
-1.06581e-14 0.00124585 0
0.000775027 8.54288e-05 0
-0.00154449 -0.000751851 0
-0.000108089 -0.000342911 5.8281e-27
-0.000479641 -2.52562e-05 -3.55271e-15
4.61853e-14 -0.00120561 -2.30926e-14
0.000479641 -2.52562e-05 4.44089e-15
0.000108089 -0.000342911 1.59872e-14
0 0 0
0 0 0
0 0 0
0 0 0
0 0 0
-0.00115605 0.00324739 -1.0327e-05
5.79347e-05 -0.000943062 0.00028239
2.75335e-14 0.00529626 0.000108637
-5.79347e-05 -0.000943062 0.00028239
0.00115605 0.00324739 -1.0327e-05
      </DataArray> 
    </PointData>
    <CellData>
    </CellData>
  </Piece>
  </UnstructuredGrid>
</VTKFile>
