<?xml version="1.0"?>
<VTKFile type="UnstructuredGrid">
  <UnstructuredGrid>
  <Piece NumberOfPoints="36"  NumberOfCells="69">
    <Points>
      <DataArray type="Float64" NumberOfComponents="3" format="ascii">
0 0 0
8.07643e-05 0.999963 0
7.06579e-05 1.99994 0
3.50162e-05 2.99998 0
0.000171201 4.00011 0
0.00108762 5.00036 0
0.00441391 6.00035 0
0.404413 5.99934 0
3.40471 5.98638 0
6.4044 5.97131 0
9.40265 5.97146 0
12.4009 5.98665 0
15.4006 5.99934 0
15.8007 6.00017 0
15.8035 4.99987 0
15.8032 3.99974 0
15.8022 2.99972 0
15.8011 1.99979 0
15.8003 0.999886 0
15.8 0 0
15.4 0 0
15.4003 1.00004 0
15.4011 2.00005 0
15.4022 2.99998 0
15.4032 3.99978 0
15.4035 4.99941 0
12.4041 4.98677 0
9.40414 4.97157 0
6.40263 4.97124 0
3.40112 4.98626 0
0.401044 4.9996 0
0.400189 3.99979 0
0.400047 2.99989 0
0.400076 1.99994 0
0.400082 0.999969 0
0.4 0 0
      </DataArray>
    </Points>
    <Cells>
      <DataArray type="Int32" Name="connectivity" format="ascii">
0 1
1 2
2 3
3 4
4 5
5 6
6 7
7 8
8 9
9 10
10 11
11 12
12 13
13 14
14 15
15 16
16 17
17 18
18 19
19 20
20 21
21 22
22 23
23 24
24 25
25 26
26 27
27 28
28 29
29 30
30 31
31 32
32 33
33 34
34 35
0 35
0 34
1 34
1 33
2 33
2 32
3 32
3 31
4 31
4 30
5 30
5 7
30 7
30 8
29 8
29 9
28 9
28 10
27 10
27 11
26 11
26 12
25 12
25 13
25 14
24 14
24 15
23 15
23 16
22 16
22 17
21 17
21 18
20 18
      </DataArray>
      <DataArray type="Int32" Name="offsets" format="ascii">
2
4
6
8
10
12
14
16
18
20
22
24
26
28
30
32
34
36
38
40
42
44
46
48
50
52
54
56
58
60
62
64
66
68
70
72
74
76
78
80
82
84
86
88
90
92
94
96
98
100
102
104
106
108
110
112
114
116
118
120
122
124
126
128
130
132
134
136
138
      </DataArray>
      <DataArray type="UInt8" Name="types" format="ascii">
4
4
4
4
4
4
4
4
4
4
4
4
4
4
4
4
4
4
4
4
4
4
4
4
4
4
4
4
4
4
4
4
4
4
4
4
4
4
4
4
4
4
4
4
4
4
4
4
4
4
4
4
4
4
4
4
4
4
4
4
4
4
4
4
4
4
4
4
4
      </DataArray>
    </Cells>
    <PointData>
      <DataArray type="Float64" NumberOfComponents="3" Name="Displacement" format="ascii">
0 0 0
8.07643e-05 -3.72412e-05 0
7.06579e-05 -5.50105e-05 0
3.50162e-05 -2.30929e-05 0
0.000171201 0.000105604 0
0.00108762 0.000358759 0
0.00441391 0.000352776 0
0.00441312 -0.000658544 0
0.0047091 -0.0136218 0
0.00439853 -0.0286923 0
0.00264813 -0.0285383 0
0.000875133 -0.0133508 0
0.000619313 -0.000661627 0
0.000667566 0.000171893 0
0.00350761 -0.000128885 0
0.00318442 -0.000264416 0
0.00218491 -0.000278913 0
0.00109748 -0.000213736 0
0.00033656 -0.000114372 0
0 0 0
0 0 0
0.000340771 4.42332e-05 0
0.00110692 5.18655e-05 0
0.00220121 -2.28499e-05 0
0.0032078 -0.000220809 0
0.00353523 -0.000590258 0
0.00412638 -0.0132324 0
0.00414167 -0.0284338 0
0.00262553 -0.0287553 0
0.00111528 -0.0137366 0
0.00104393 -0.000399516 0
0.000188699 -0.000205016 0
4.67005e-05 -0.0001077 0
7.62002e-05 -5.98538e-05 0
8.21961e-05 -3.10145e-05 0
0 0 0
      </DataArray> 
      <DataArray type="Float64" NumberOfComponents="3" Name="Velocity" format="ascii">
0 0 0
0.000107516 2.9533e-05 0
0.00026351 4.04393e-05 0
0.000395376 3.08984e-05 0
0.000391121 5.53454e-06 0
0.000182772 -3.47938e-05 0
-0.000419351 -3.11782e-05 0
-0.000419734 0.000151539 0
-0.00049141 0.00282741 0
-0.000266814 0.00380835 0
-8.11027e-05 0.00387723 0
6.90156e-05 0.0029407 0
0.000261152 0.000152275 0
0.000251836 -1.92398e-06 0
-0.000247731 4.48532e-05 0
-0.000267749 6.807e-05 0
-0.000135043 6.00003e-05 0
-4.96915e-05 3.92875e-05 0
-1.02328e-05 1.5907e-05 0
0 0 0
0 0 0
-9.24179e-06 2.01443e-05 0
-4.99818e-05 3.36838e-05 0
-0.000137561 4.73452e-05 0
-0.000271494 8.17827e-05 0
-0.000252597 0.000136751 0
-0.000374697 0.0030365 0
-0.00021434 0.00387484 0
-0.000116206 0.00380674 0
4.86436e-05 0.00294568 0
0.000188839 0.0001026 0
0.000389106 5.06444e-05 0
0.000392812 1.18369e-05 0
0.000260632 -9.85463e-06 0
0.000104416 -1.53169e-05 0
0 0 0
      </DataArray> 
      <DataArray type="Float64" NumberOfComponents="3" Name="Acceleration" format="ascii">
0 0 0
-7.31861e-05 -1.60274e-06 0
-0.000104934 -2.60984e-06 0
-0.000160764 7.52406e-06 0
-9.72714e-05 8.42367e-06 0
-8.08661e-05 1.9159e-05 0
5.24116e-05 1.91677e-05 0
5.12424e-05 -2.45285e-05 0
1.90488e-05 -0.000318113 0
-0.000108555 -0.000637635 0
-0.00012917 -0.000630981 0
-6.4854e-05 -0.000341169 0
-2.64695e-05 -5.28412e-06 0
-2.43881e-05 -9.82448e-06 0
-7.54636e-06 -3.56437e-06 0
0.000165683 -2.089e-05 0
0.000141175 -2.25863e-05 0
0.000154443 -2.70667e-05 0
6.73487e-05 -1.77225e-05 0
0 0 0
0 0 0
6.8788e-05 -5.6906e-06 0
0.000154691 -2.00212e-05 0
0.000141569 -2.48691e-05 0
0.000164618 -3.74192e-05 0
-8.21059e-06 -1.85635e-05 0
4.01144e-05 -0.000268682 0
8.32161e-05 0.000413048 0
9.77512e-05 0.000449544 0
5.49983e-05 -0.000215401 0
-7.63604e-05 -1.03137e-05 0
-9.7183e-05 -6.62208e-06 0
-0.000160722 6.84705e-06 0
-0.000104067 9.59206e-06 0
-7.20464e-05 1.16757e-05 0
0 0 0
      </DataArray> 
    </PointData>
    <CellData>
    </CellData>
  </Piece>
  </UnstructuredGrid>
</VTKFile>
