<?xml version="1.0"?>
<VTKFile type="UnstructuredGrid">
  <UnstructuredGrid>
  <Piece NumberOfPoints="36"  NumberOfCells="69">
    <Points>
      <DataArray type="Float64" NumberOfComponents="3" format="ascii">
0 0 0
-0.00156184 0.999679 0
-0.00397892 1.99962 0
-0.00591311 2.99983 0
-0.00600785 4.00031 0
-0.00278653 5.00103 0
0.00701466 6.00098 0
0.407003 5.99797 0
3.40759 5.95667 0
6.40557 5.92785 0
9.40184 5.92719 0
12.3979 5.95505 0
15.3957 5.99713 0
15.7958 6.00038 0
15.8052 4.99974 0
15.8076 3.99931 0
15.807 2.99913 0
15.8047 1.99919 0
15.802 0.999482 0
15.8 0 0
15.4 0 0
15.402 0.999978 0
15.4048 1.99972 0
15.407 2.99922 0
15.4076 3.99848 0
15.4052 4.99749 0
12.4066 4.95543 0
9.40513 4.92745 0
6.40165 4.92791 0
3.39837 4.95655 0
0.397089 4.99874 0
0.394032 3.99953 0
0.394129 3.00004 0
0.396063 2.00029 0
0.39848 1.00028 0
0.4 0 0
      </DataArray>
    </Points>
    <Cells>
      <DataArray type="Int32" Name="connectivity" format="ascii">
0 1
1 2
2 3
3 4
4 5
5 6
6 7
7 8
8 9
9 10
10 11
11 12
12 13
13 14
14 15
15 16
16 17
17 18
18 19
19 20
20 21
21 22
22 23
23 24
24 25
25 26
26 27
27 28
28 29
29 30
30 31
31 32
32 33
33 34
34 35
0 35
0 34
1 34
1 33
2 33
2 32
3 32
3 31
4 31
4 30
5 30
5 7
30 7
30 8
29 8
29 9
28 9
28 10
27 10
27 11
26 11
26 12
25 12
25 13
25 14
24 14
24 15
23 15
23 16
22 16
22 17
21 17
21 18
20 18
      </DataArray>
      <DataArray type="Int32" Name="offsets" format="ascii">
2
4
6
8
10
12
14
16
18
20
22
24
26
28
30
32
34
36
38
40
42
44
46
48
50
52
54
56
58
60
62
64
66
68
70
72
74
76
78
80
82
84
86
88
90
92
94
96
98
100
102
104
106
108
110
112
114
116
118
120
122
124
126
128
130
132
134
136
138
      </DataArray>
      <DataArray type="UInt8" Name="types" format="ascii">
4
4
4
4
4
4
4
4
4
4
4
4
4
4
4
4
4
4
4
4
4
4
4
4
4
4
4
4
4
4
4
4
4
4
4
4
4
4
4
4
4
4
4
4
4
4
4
4
4
4
4
4
4
4
4
4
4
4
4
4
4
4
4
4
4
4
4
4
4
      </DataArray>
    </Cells>
    <PointData>
      <DataArray type="Float64" NumberOfComponents="3" Name="Displacement" format="ascii">
0 0 0
-0.00156184 -0.000321047 0
-0.00397892 -0.00037796 0
-0.00591311 -0.000167215 0
-0.00600785 0.00030659 0
-0.00278653 0.00102796 0
0.00701466 0.000980449 0
0.0070033 -0.00203299 0
0.00758969 -0.0433262 0
0.00557228 -0.0721486 0
0.00184077 -0.0728116 0
-0.00208594 -0.0449497 0
-0.00432441 -0.00286786 0
-0.00422854 0.000377763 0
0.00520099 -0.000256393 0
0.00756594 -0.000685783 0
0.00698895 -0.000870588 0
0.00472839 -0.000811796 0
0.00199749 -0.000518233 0
0 0 0
0 0 0
0.00203466 -2.24591e-05 0
0.00476677 -0.00028055 0
0.00702824 -0.000779058 0
0.00760694 -0.00152226 0
0.00524864 -0.00251385 0
0.00664956 -0.0445727 0
0.00512967 -0.0725506 0
0.00164741 -0.0720878 0
-0.00163078 -0.0434525 0
-0.00291106 -0.00125518 0
-0.00596816 -0.000472316 0
-0.00587113 4.35699e-05 0
-0.00393688 0.000293814 0
-0.00152009 0.000278947 0
0 0 0
      </DataArray> 
      <DataArray type="Float64" NumberOfComponents="3" Name="Velocity" format="ascii">
0 0 0
2.53658e-06 -1.13818e-05 0
-4.14151e-05 -1.86633e-05 0
-0.000107761 -1.80587e-05 0
-0.000192463 7.4585e-06 0
-0.000100907 5.60846e-05 0
0.000445563 5.15257e-05 0
0.000443625 -0.000108613 0
0.000442797 -0.00234965 0
0.000319354 -0.00463597 0
8.87723e-05 -0.00471639 0
-0.000206287 -0.00246454 0
-0.000353868 -0.000154897 0
-0.000350702 3.07898e-05 0
0.000164769 -8.24276e-06 0
0.000131072 -1.87386e-05 0
2.45373e-05 -1.18448e-05 0
-5.99498e-05 2.28247e-06 0
-3.76351e-05 5.73311e-06 0
0 0 0
0 0 0
-3.87548e-05 1.6472e-06 0
-5.94792e-05 6.86454e-06 0
2.73067e-05 -4.98936e-06 0
0.000135975 -4.32421e-05 0
0.000173177 -0.000120248 0
0.00032968 -0.00247289 0
0.000329174 -0.00471128 0
6.11392e-05 -0.00465774 0
-0.000129872 -0.0023912 0
-0.000111207 -5.63303e-05 0
-0.000188709 -1.72424e-05 0
-0.000104933 -4.28288e-06 0
-4.04204e-05 6.01348e-08 0
2.7962e-06 -2.34651e-07 0
0 0 0
      </DataArray> 
      <DataArray type="Float64" NumberOfComponents="3" Name="Acceleration" format="ascii">
0 0 0
-9.82074e-06 -2.94093e-06 0
-4.62763e-06 -3.12515e-06 0
1.33972e-05 -3.30559e-06 0
2.12829e-05 -6.20954e-06 0
7.98259e-06 -1.59963e-05 0
-1.44572e-06 -2.22046e-05 0
-1.86814e-06 -4.53448e-06 0
-4.94673e-06 0.000784493 0
9.85691e-05 0.000313861 0
-5.30928e-05 0.000293002 0
6.66157e-05 0.000794687 0
-1.04487e-05 -5.09696e-06 0
-1.31326e-05 2.39707e-05 0
5.51047e-07 2.03602e-05 0
4.47232e-06 1.20693e-05 0
2.37645e-05 1.23942e-06 0
2.70244e-05 -4.60301e-06 0
2.34829e-05 -5.07986e-06 0
0 0 0
0 0 0
2.33002e-05 -2.4815e-06 0
2.72761e-05 -5.69274e-07 0
2.40677e-05 6.02143e-06 0
3.89584e-06 1.44723e-05 0
1.16321e-06 1.35364e-05 0
1.22841e-05 -0.000171121 0
-5.55404e-05 -0.000256882 0
5.21353e-05 -0.000277048 0
-9.81687e-05 -0.000229629 0
1.04507e-05 1.2954e-05 0
1.96288e-05 2.04364e-06 0
1.2413e-05 -3.93582e-06 0
-5.22312e-06 -3.9926e-06 0
-9.39775e-06 -1.11681e-06 0
0 0 0
      </DataArray> 
    </PointData>
    <CellData>
    </CellData>
  </Piece>
  </UnstructuredGrid>
</VTKFile>
