<?xml version="1.0"?>
<VTKFile type="UnstructuredGrid">
  <UnstructuredGrid>
  <Piece NumberOfPoints="36"  NumberOfCells="69">
    <Points>
      <DataArray type="Float64" NumberOfComponents="3" format="ascii">
0 0 0
-0.00165454 0.999633 0
-0.00417356 1.99957 0
-0.00602984 2.99983 0
-0.00564866 4.00041 0
-0.0011602 5.00132 0
0.0116691 6.00123 0
0.411649 5.99725 0
3.41227 5.9437 0
6.40959 5.90557 0
9.40462 5.9048 0
12.3994 5.94193 0
15.3964 5.99633 0
15.7965 6.00043 0
15.8086 4.99957 0
15.811 3.999 0
15.8096 2.99879 0
15.8063 1.99891 0
15.8026 0.999317 0
15.8 0 0
15.4 0 0
15.4026 1.00001 0
15.4063 1.99971 0
15.4097 2.9991 0
15.4111 3.99814 0
15.4087 4.99681 0
12.4108 4.94228 0
9.40897 4.90501 0
6.40444 4.9055 0
3.40018 4.94339 0
0.398679 4.99826 0
0.394401 3.99925 0
0.394021 2.9999 0
0.395876 2.00023 0
0.398393 1.00027 0
0.4 0 0
      </DataArray>
    </Points>
    <Cells>
      <DataArray type="Int32" Name="connectivity" format="ascii">
0 1
1 2
2 3
3 4
4 5
5 6
6 7
7 8
8 9
9 10
10 11
11 12
12 13
13 14
14 15
15 16
16 17
17 18
18 19
19 20
20 21
21 22
22 23
23 24
24 25
25 26
26 27
27 28
28 29
29 30
30 31
31 32
32 33
33 34
34 35
0 35
0 34
1 34
1 33
2 33
2 32
3 32
3 31
4 31
4 30
5 30
5 7
30 7
30 8
29 8
29 9
28 9
28 10
27 10
27 11
26 11
26 12
25 12
25 13
25 14
24 14
24 15
23 15
23 16
22 16
22 17
21 17
21 18
20 18
      </DataArray>
      <DataArray type="Int32" Name="offsets" format="ascii">
2
4
6
8
10
12
14
16
18
20
22
24
26
28
30
32
34
36
38
40
42
44
46
48
50
52
54
56
58
60
62
64
66
68
70
72
74
76
78
80
82
84
86
88
90
92
94
96
98
100
102
104
106
108
110
112
114
116
118
120
122
124
126
128
130
132
134
136
138
      </DataArray>
      <DataArray type="UInt8" Name="types" format="ascii">
4
4
4
4
4
4
4
4
4
4
4
4
4
4
4
4
4
4
4
4
4
4
4
4
4
4
4
4
4
4
4
4
4
4
4
4
4
4
4
4
4
4
4
4
4
4
4
4
4
4
4
4
4
4
4
4
4
4
4
4
4
4
4
4
4
4
4
4
4
      </DataArray>
    </Cells>
    <PointData>
      <DataArray type="Float64" NumberOfComponents="3" Name="Displacement" format="ascii">
0 0 0
-0.00165454 -0.000367245 0
-0.00417356 -0.000429037 0
-0.00602984 -0.000173063 0
-0.00564866 0.00041204 0
-0.0011602 0.00131605 0
0.0116691 0.00123294 0
0.0116492 -0.00275018 0
0.0122713 -0.0562951 0
0.00958983 -0.094433 0
0.00461899 -0.0951965 0
-0.000616254 -0.0580746 0
-0.00357832 -0.00366514 0
-0.00345008 0.000427533 0
0.00863812 -0.000431764 0
0.011007 -0.000995498 0
0.00960309 -0.00120766 0
0.00625579 -0.00109293 0
0.00256583 -0.000683451 0
0 0 0
0 0 0
0.00261214 5.39385e-06 0
0.00630583 -0.000285215 0
0.00965758 -0.000896464 0
0.0110667 -0.00185764 0
0.00871053 -0.00318965 0
0.0107683 -0.0577231 0
0.00897361 -0.0949876 0
0.00444097 -0.0944984 0
0.000178565 -0.0566051 0
-0.00132136 -0.00174081 0
-0.00559924 -0.000753712 0
-0.00597888 -0.000102799 0
-0.0041244 0.000234562 0
-0.00160665 0.0002675 0
0 0 0
      </DataArray> 
      <DataArray type="Float64" NumberOfComponents="3" Name="Velocity" format="ascii">
0 0 0
-0.00023861 -2.54126e-05 0
-0.000546678 -1.57404e-05 0
-0.000692843 9.55326e-06 0
-0.000638537 4.31655e-05 0
-0.000295103 6.14577e-05 0
0.000179693 5.43197e-05 0
0.00017782 -0.000106052 0
0.000158429 -0.00217217 0
1.13474e-05 -0.0028778 0
-0.000104759 -0.00284298 0
-0.000161431 -0.00222566 0
-0.000358781 -0.000212068 0
-0.000358105 8.24253e-06 0
0.000211292 -2.61802e-06 0
0.000692699 -4.36734e-05 0
0.000870246 -8.68644e-05 0
0.000720009 -0.000105132 0
0.000349131 -7.84078e-05 0
0 0 0
0 0 0
0.000356431 -7.71107e-06 0
0.000724809 -5.2175e-05 0
0.000871511 -0.000110677 0
0.000690869 -0.000161823 0
0.000206795 -0.000189734 0
0.000202834 -0.00241628 0
4.51067e-05 -0.00288669 0
-5.51448e-05 -0.00289754 0
-0.000241425 -0.00235721 0
-0.000301986 -7.67048e-05 0
-0.000639394 -2.18985e-05 0
-0.000691031 2.25544e-05 0
-0.000542771 5.14455e-05 0
-0.000232861 4.50463e-05 0
0 0 0
      </DataArray> 
      <DataArray type="Float64" NumberOfComponents="3" Name="Acceleration" format="ascii">
0 0 0
-2.23187e-05 1.01121e-05 0
-3.398e-05 1.69679e-05 0
-4.60505e-05 2.45289e-05 0
-1.81987e-05 2.75933e-05 0
2.88371e-05 2.96791e-05 0
-2.01172e-06 3.50583e-05 0
-5.05487e-06 2.47443e-05 0
-0.000124234 -1.05523e-05 0
-3.42459e-06 -0.000106883 0
1.99406e-05 -8.83138e-05 0
2.26449e-06 8.15758e-06 0
1.4504e-05 -7.86506e-06 0
7.66642e-06 -5.5013e-06 0
2.44786e-05 2.87127e-06 0
5.95873e-05 1.1282e-05 0
0.000115036 8.51451e-06 0
9.98319e-05 2.28555e-06 0
5.04931e-05 -4.05461e-06 0
0 0 0
0 0 0
5.20035e-05 1.13791e-05 0
0.000101036 9.72063e-06 0
0.000115287 -2.6119e-06 0
5.83599e-05 -1.16316e-05 0
2.33637e-05 -1.69514e-05 0
-2.85872e-05 0.000678996 0
8.00699e-06 0.000591481 0
-2.67555e-05 0.000543914 0
-2.26682e-07 0.000636046 0
2.39915e-05 4.12665e-06 0
-1.64287e-05 9.96781e-06 0
-4.61011e-05 1.50939e-05 0
-3.30489e-05 1.30599e-05 0
-2.21943e-05 7.64871e-06 0
0 0 0
      </DataArray> 
    </PointData>
    <CellData>
    </CellData>
  </Piece>
  </UnstructuredGrid>
</VTKFile>
