<?xml version="1.0"?>
<VTKFile type="UnstructuredGrid">
  <UnstructuredGrid>
  <Piece NumberOfPoints="36"  NumberOfCells="69">
    <Points>
      <DataArray type="Float64" NumberOfComponents="3" format="ascii">
0 0 0
-0.00312183 0.999422 0
-0.00801285 1.99931 0
-0.0122577 2.99964 0
-0.0136099 4.00038 0
-0.00977773 5.00149 0
0.00410761 6.0014 0
0.404086 5.99724 0
3.40485 5.93838 0
6.40199 5.89595 0
9.39654 5.89515 0
12.3908 5.93594 0
15.3875 5.9958 0
15.7876 6.00077 0
15.8016 5.00002 0
15.807 3.99941 0
15.808 2.99905 0
15.8061 1.99901 0
15.8028 0.999324 0
15.8 0 0
15.4 0 0
15.4029 0.999879 0
15.4062 1.99941 0
15.4081 2.99863 0
15.407 3.9976 0
15.4017 4.99632 0
12.4036 4.93637 0
9.40144 4.89535 0
6.39634 4.89585 0
3.3916 4.93809 0
0.390029 4.99846 0
0.38645 3.99964 0
0.387809 3.00042 0
0.392058 2.00075 0
0.396952 1.00062 0
0.4 0 0
      </DataArray>
    </Points>
    <Cells>
      <DataArray type="Int32" Name="connectivity" format="ascii">
0 1
1 2
2 3
3 4
4 5
5 6
6 7
7 8
8 9
9 10
10 11
11 12
12 13
13 14
14 15
15 16
16 17
17 18
18 19
19 20
20 21
21 22
22 23
23 24
24 25
25 26
26 27
27 28
28 29
29 30
30 31
31 32
32 33
33 34
34 35
0 35
0 34
1 34
1 33
2 33
2 32
3 32
3 31
4 31
4 30
5 30
5 7
30 7
30 8
29 8
29 9
28 9
28 10
27 10
27 11
26 11
26 12
25 12
25 13
25 14
24 14
24 15
23 15
23 16
22 16
22 17
21 17
21 18
20 18
      </DataArray>
      <DataArray type="Int32" Name="offsets" format="ascii">
2
4
6
8
10
12
14
16
18
20
22
24
26
28
30
32
34
36
38
40
42
44
46
48
50
52
54
56
58
60
62
64
66
68
70
72
74
76
78
80
82
84
86
88
90
92
94
96
98
100
102
104
106
108
110
112
114
116
118
120
122
124
126
128
130
132
134
136
138
      </DataArray>
      <DataArray type="UInt8" Name="types" format="ascii">
4
4
4
4
4
4
4
4
4
4
4
4
4
4
4
4
4
4
4
4
4
4
4
4
4
4
4
4
4
4
4
4
4
4
4
4
4
4
4
4
4
4
4
4
4
4
4
4
4
4
4
4
4
4
4
4
4
4
4
4
4
4
4
4
4
4
4
4
4
      </DataArray>
    </Cells>
    <PointData>
      <DataArray type="Float64" NumberOfComponents="3" Name="Displacement" format="ascii">
0 0 0
-0.00312183 -0.000578262 0
-0.00801285 -0.000692862 0
-0.0122577 -0.00036172 0
-0.0136099 0.000384395 0
-0.00977773 0.0014916 0
0.00410761 0.00139535 0
0.00408617 -0.00276364 0
0.00485426 -0.0616185 0
0.00198788 -0.104047 0
-0.00345624 -0.10485 0
-0.00919279 -0.0640559 0
-0.0125003 -0.00419636 0
-0.0123949 0.000772469 0
0.00163081 1.70999e-05 0
0.00695979 -0.00059233 0
0.00801179 -0.000946597 0
0.00611138 -0.000988618 0
0.00281039 -0.000675647 0
0 0 0
0 0 0
0.00286769 -0.000121252 0
0.00616433 -0.000591543 0
0.00805876 -0.00136502 0
0.00700508 -0.0024028 0
0.00168826 -0.00368312 0
0.00359117 -0.0636335 0
0.00144328 -0.104652 0
-0.00365916 -0.104148 0
-0.00840426 -0.0619135 0
-0.00997089 -0.00154127 0
-0.0135504 -0.000355213 0
-0.012191 0.000415654 0
-0.00794245 0.000750396 0
-0.00304806 0.000617523 0
0 0 0
      </DataArray> 
      <DataArray type="Float64" NumberOfComponents="3" Name="Velocity" format="ascii">
0 0 0
0.000255135 1.28813e-05 0
0.000519791 -1.87989e-06 0
0.000666611 -3.74593e-05 0
0.000530057 -6.4026e-05 0
0.000217432 -6.62816e-05 0
-6.82856e-05 -6.1435e-05 0
-6.7471e-05 4.49792e-05 0
-6.59955e-05 0.00100423 0
-3.70494e-05 0.00165373 0
1.3342e-05 0.00154804 0
6.34856e-05 0.000934534 0
0.000125979 0.0001594 0
0.000129229 9.4608e-07 0
-0.000231517 -1.31084e-05 0
-0.000810214 2.37697e-05 0
-0.00108023 8.0495e-05 0
-0.000931596 0.000117626 0
-0.00043473 9.24802e-05 0
0 0 0
0 0 0
-0.000444865 -6.2351e-06 0
-0.00093774 4.45557e-05 0
-0.00108024 0.000108422 0
-0.000805659 0.000152016 0
-0.000224403 0.00014917 0
-0.000157916 0.00108619 0
-3.39588e-05 0.00152744 0
4.82388e-05 0.00163457 0
0.000141138 0.00116098 0
0.00021678 3.32111e-05 0
0.000533051 3.11334e-06 0
0.000666002 -3.55729e-05 0
0.000516217 -5.54612e-05 0
0.000249864 -4.83201e-05 0
0 0 0
      </DataArray> 
      <DataArray type="Float64" NumberOfComponents="3" Name="Acceleration" format="ascii">
0 0 0
3.36394e-05 5.14012e-06 0
9.09865e-05 2.58943e-06 0
0.000109631 -2.06243e-06 0
0.000117178 -8.50678e-06 0
7.23088e-05 -1.01599e-05 0
1.92942e-05 -6.94995e-06 0
1.84012e-05 4.89881e-06 0
-1.75027e-05 0.000263981 0
-1.66025e-05 -0.000143147 0
1.9026e-05 -0.000205928 0
2.16108e-05 0.000190428 0
3.58486e-05 -2.39174e-05 0
3.2301e-05 5.71054e-06 0
2.2793e-05 1.15509e-05 0
-0.000114586 3.63201e-05 0
-0.000132182 4.64594e-05 0
-0.000132657 4.49189e-05 0
-4.85512e-05 2.32989e-05 0
0 0 0
0 0 0
-4.86775e-05 2.17591e-05 0
-0.00013334 4.28323e-05 0
-0.00013216 4.4812e-05 0
-0.000111919 3.68048e-05 0
2.21679e-05 1.23755e-06 0
-4.65111e-05 0.000456469 0
6.25019e-05 0.000829163 0
7.26004e-05 0.000815028 0
6.59106e-05 0.000416548 0
7.26838e-05 -4.75703e-08 0
0.000116828 -3.92468e-06 0
0.000110542 -6.55745e-06 0
9.04457e-05 -9.53088e-06 0
3.2622e-05 -6.84532e-06 0
0 0 0
      </DataArray> 
    </PointData>
    <CellData>
    </CellData>
  </Piece>
  </UnstructuredGrid>
</VTKFile>
