<?xml version="1.0"?>
<VTKFile type="UnstructuredGrid">
  <UnstructuredGrid>
  <Piece NumberOfPoints="36"  NumberOfCells="69">
    <Points>
      <DataArray type="Float64" NumberOfComponents="3" format="ascii">
0 0 0
-0.000921007 0.999904 0
-0.00193564 1.99996 0
-0.00221529 3.00014 0
-0.00113624 4.00041 0
0.00172508 5.00072 0
0.00732092 6.00071 0
0.407318 5.99887 0
3.40765 5.97672 0
6.40679 5.95812 0
9.40452 5.95854 0
12.4023 5.9771 0
15.4015 5.99845 0
15.8016 6.00015 0
15.8067 4.99979 0
15.8083 3.99946 0
15.8077 2.99924 0
15.8053 1.99921 0
15.8023 0.999457 0
15.8 0 0
15.4 0 0
15.4023 1.00009 0
15.4054 1.99992 0
15.4077 2.99956 0
15.4083 3.9991 0
15.4067 4.99859 0
12.4073 4.9773 0
9.4067 4.95871 0
6.40454 4.95812 0
3.40237 4.97663 0
0.401671 4.99921 0
0.398874 3.9996 0
0.397801 2.99992 0
0.398086 2.00011 0
0.399105 1.00014 0
0.4 0 0
      </DataArray>
    </Points>
    <Cells>
      <DataArray type="Int32" Name="connectivity" format="ascii">
0 1
1 2
2 3
3 4
4 5
5 6
6 7
7 8
8 9
9 10
10 11
11 12
12 13
13 14
14 15
15 16
16 17
17 18
18 19
19 20
20 21
21 22
22 23
23 24
24 25
25 26
26 27
27 28
28 29
29 30
30 31
31 32
32 33
33 34
34 35
0 35
0 34
1 34
1 33
2 33
2 32
3 32
3 31
4 31
4 30
5 30
5 7
30 7
30 8
29 8
29 9
28 9
28 10
27 10
27 11
26 11
26 12
25 12
25 13
25 14
24 14
24 15
23 15
23 16
22 16
22 17
21 17
21 18
20 18
      </DataArray>
      <DataArray type="Int32" Name="offsets" format="ascii">
2
4
6
8
10
12
14
16
18
20
22
24
26
28
30
32
34
36
38
40
42
44
46
48
50
52
54
56
58
60
62
64
66
68
70
72
74
76
78
80
82
84
86
88
90
92
94
96
98
100
102
104
106
108
110
112
114
116
118
120
122
124
126
128
130
132
134
136
138
      </DataArray>
      <DataArray type="UInt8" Name="types" format="ascii">
4
4
4
4
4
4
4
4
4
4
4
4
4
4
4
4
4
4
4
4
4
4
4
4
4
4
4
4
4
4
4
4
4
4
4
4
4
4
4
4
4
4
4
4
4
4
4
4
4
4
4
4
4
4
4
4
4
4
4
4
4
4
4
4
4
4
4
4
4
      </DataArray>
    </Cells>
    <PointData>
      <DataArray type="Float64" NumberOfComponents="3" Name="Displacement" format="ascii">
0 0 0
-0.000921007 -9.56515e-05 0
-0.00193564 -3.61372e-05 0
-0.00221529 0.000144961 0
-0.00113624 0.000407464 0
0.00172508 0.000724474 0
0.00732092 0.000709081 0
0.00731754 -0.00112932 0
0.00765063 -0.0232765 0
0.00678649 -0.0418843 0
0.00451967 -0.0414556 0
0.00227736 -0.0229005 0
0.00154816 -0.00155243 0
0.00160727 0.000154903 0
0.00673793 -0.000210594 0
0.00831689 -0.000541961 0
0.00768421 -0.000762008 0
0.00534957 -0.000787405 0
0.00228099 -0.000542696 0
0 0 0
0 0 0
0.00232669 9.47798e-05 0
0.00538671 -7.77253e-05 0
0.00770861 -0.000436967 0
0.00832986 -0.000902336 0
0.00674653 -0.00141151 0
0.00731188 -0.0227022 0
0.00670292 -0.0412866 0
0.00454062 -0.0418766 0
0.00237218 -0.0233702 0
0.0016714 -0.000793862 0
-0.00112595 -0.000395033 0
-0.00219913 -8.26789e-05 0
-0.00191355 0.000106836 0
-0.000894755 0.000140617 0
0 0 0
      </DataArray> 
      <DataArray type="Float64" NumberOfComponents="3" Name="Velocity" format="ascii">
0 0 0
0.000223636 3.88016e-05 0
0.000593597 4.11762e-05 0
0.000878871 1.67537e-05 0
0.000953297 -2.76258e-05 0
0.000672681 -7.32672e-05 0
7.68383e-06 -6.90129e-05 0
9.06095e-06 0.00013665 0
-1.10035e-05 0.00309076 0
0.000165907 0.00415685 0
0.000360431 0.00415989 0
0.000511721 0.00320784 0
0.000759915 0.000259715 0
0.000755894 -1.76451e-05 0
1.92034e-05 1.25234e-05 0
-0.000408923 4.91571e-05 0
-0.000577201 7.98894e-05 0
-0.00046839 8.33022e-05 0
-0.000242401 5.84481e-05 0
0 0 0
0 0 0
-0.000246694 2.24938e-05 0
-0.000471973 6.39695e-05 0
-0.000579229 0.000121293 0
-0.000408943 0.000177951 0
2.09061e-05 0.000231371 0
-1.16101e-06 0.00339748 0
0.00020717 0.00438724 0
0.000362913 0.00435876 0
0.000579295 0.00327686 0
0.000683105 8.49943e-05 0
0.000951587 1.27714e-05 0
0.000875157 -3.78077e-05 0
0.000588562 -6.09022e-05 0
0.000218154 -4.67487e-05 0
0 0 0
      </DataArray> 
      <DataArray type="Float64" NumberOfComponents="3" Name="Acceleration" format="ascii">
0 0 0
6.38125e-05 -6.66949e-07 0
0.000115702 -6.99308e-06 0
0.000132304 -1.43955e-05 0
7.9952e-05 -1.4394e-05 0
3.72879e-05 -8.61414e-06 0
9.02812e-05 -1.17281e-05 0
8.72263e-05 -1.82946e-05 0
-7.36323e-06 0.00016085 0
-1.44493e-05 -0.000218823 0
-4.18586e-05 -0.000280747 0
4.68794e-05 0.000107997 0
-0.000112543 -2.18643e-05 0
-0.000118455 2.76945e-05 0
-4.20055e-05 1.55376e-05 0
-0.000225612 2.82132e-05 0
-0.000271966 3.6382e-05 0
-0.000259009 4.19525e-05 0
-0.000111704 2.77957e-05 0
0 0 0
0 0 0
-0.00011428 5.93028e-06 0
-0.000260091 2.80514e-05 0
-0.00027123 4.14953e-05 0
-0.000222614 4.35914e-05 0
-3.70017e-05 5.37291e-06 0
2.11074e-05 -0.000329557 0
1.16972e-05 2.92029e-05 0
7.61807e-05 6.44081e-05 0
-1.41e-05 -0.000313008 0
3.53272e-05 -2.54469e-06 0
8.16853e-05 -3.08242e-06 0
0.000131945 -1.05585e-05 0
0.000115408 -1.47252e-05 0
6.26448e-05 -1.26447e-05 0
0 0 0
      </DataArray> 
    </PointData>
    <CellData>
    </CellData>
  </Piece>
  </UnstructuredGrid>
</VTKFile>
