<?xml version="1.0"?>
<VTKFile type="UnstructuredGrid">
  <UnstructuredGrid>
  <Piece NumberOfPoints="36"  NumberOfCells="69">
    <Points>
      <DataArray type="Float64" NumberOfComponents="3" format="ascii">
0 0 0
-0.000155495 1.00002 0
-0.000198553 2.00006 0
1.22671e-05 3.0001 0
0.000499468 4.00012 0
0.00109495 5.0001 0
0.00150373 6.0001 0
0.401504 5.99993 0
3.4015 5.99898 0
6.40157 5.99675 0
9.40138 5.99693 0
12.4012 5.99916 0
15.4013 5.99988 0
15.8013 5.99999 0
15.8017 4.99998 0
15.8021 3.99992 0
15.8021 2.99984 0
15.8016 1.9998 0
15.8007 0.99985 0
15.8 0 0
15.4 0 0
15.4007 1.00004 0
15.4016 2 0
15.4021 2.99993 0
15.4021 3.99988 0
15.4017 4.99987 0
12.4016 4.9991 0
9.40161 4.99701 0
6.40138 4.9968 0
3.40112 4.99889 0
0.401099 4.99992 0
0.400495 3.99993 0
0.400011 2.99997 0
0.399803 2.00001 0
0.399849 1.00002 0
0.4 0 0
      </DataArray>
    </Points>
    <Cells>
      <DataArray type="Int32" Name="connectivity" format="ascii">
0 1
1 2
2 3
3 4
4 5
5 6
6 7
7 8
8 9
9 10
10 11
11 12
12 13
13 14
14 15
15 16
16 17
17 18
18 19
19 20
20 21
21 22
22 23
23 24
24 25
25 26
26 27
27 28
28 29
29 30
30 31
31 32
32 33
33 34
34 35
0 35
0 34
1 34
1 33
2 33
2 32
3 32
3 31
4 31
4 30
5 30
5 7
30 7
30 8
29 8
29 9
28 9
28 10
27 10
27 11
26 11
26 12
25 12
25 13
25 14
24 14
24 15
23 15
23 16
22 16
22 17
21 17
21 18
20 18
      </DataArray>
      <DataArray type="Int32" Name="offsets" format="ascii">
2
4
6
8
10
12
14
16
18
20
22
24
26
28
30
32
34
36
38
40
42
44
46
48
50
52
54
56
58
60
62
64
66
68
70
72
74
76
78
80
82
84
86
88
90
92
94
96
98
100
102
104
106
108
110
112
114
116
118
120
122
124
126
128
130
132
134
136
138
      </DataArray>
      <DataArray type="UInt8" Name="types" format="ascii">
4
4
4
4
4
4
4
4
4
4
4
4
4
4
4
4
4
4
4
4
4
4
4
4
4
4
4
4
4
4
4
4
4
4
4
4
4
4
4
4
4
4
4
4
4
4
4
4
4
4
4
4
4
4
4
4
4
4
4
4
4
4
4
4
4
4
4
4
4
      </DataArray>
    </Cells>
    <PointData>
      <DataArray type="Float64" NumberOfComponents="3" Name="Displacement" format="ascii">
0 0 0
-0.000155495 1.65481e-05 0
-0.000198553 5.56365e-05 0
1.22671e-05 9.71432e-05 0
0.000499468 0.000116398 0
0.00109495 0.00010363 0
0.00150373 0.000102985 0
0.00150397 -7.37428e-05 0
0.0015007 -0.00101623 0
0.00157362 -0.00324944 0
0.00138318 -0.00307011 0
0.00122687 -0.000840037 0
0.00131499 -0.000124187 0
0.00131824 -8.69181e-06 0
0.00166922 -2.19733e-05 0
0.00207096 -8.22436e-05 0
0.00208012 -0.000157261 0
0.00155722 -0.000195216 0
0.000696328 -0.000149832 0
0 0 0
0 0 0
0.00071113 4.23568e-05 0
0.00156658 4.28324e-06 0
0.00208173 -6.7406e-05 0
0.00206598 -0.000122115 0
0.00166171 -0.000129241 0
0.00162107 -0.000903689 0
0.00161056 -0.00299034 0
0.00137715 -0.00319966 0
0.0011246 -0.00110536 0
0.00109864 -8.24303e-05 0
0.000494959 -6.78276e-05 0
1.05712e-05 -3.03242e-05 0
-0.000196653 5.51154e-06 0
-0.000151094 1.93196e-05 0
0 0 0
      </DataArray> 
      <DataArray type="Float64" NumberOfComponents="3" Name="Velocity" format="ascii">
0 0 0
-9.69751e-05 -5.27193e-06 0
-0.000228808 -1.4093e-07 0
-0.000345588 1.38123e-05 0
-0.000396385 3.22256e-05 0
-0.000351657 4.79882e-05 0
-0.000191376 4.7984e-05 0
-0.000191254 3.08029e-06 0
-0.000168262 -0.000467844 0
-0.000166769 -0.00160954 0
-0.000264775 -0.001592 0
-0.000354966 -0.000509235 0
-0.000336515 -5.03901e-05 0
-0.000336588 2.12956e-05 0
-9.33418e-05 1.50595e-05 0
0.000193011 -6.8367e-06 0
0.000364526 -3.42782e-05 0
0.000337239 -4.77029e-05 0
0.000184204 -3.88147e-05 0
0 0 0
0 0 0
0.000187812 -1.01664e-05 0
0.000339356 -3.47874e-05 0
0.000364425 -6.25753e-05 0
0.000190652 -7.5046e-05 0
-9.65333e-05 -6.60433e-05 0
-0.000115247 -0.000546851 0
-0.000117555 -0.00171993 0
-0.000224058 -0.00175751 0
-0.000379727 -0.000522921 0
-0.000353707 1.75359e-05 0
-0.000396312 2.88732e-05 0
-0.000344502 3.56752e-05 0
-0.000227366 3.42363e-05 0
-9.51991e-05 2.30102e-05 0
0 0 0
      </DataArray> 
      <DataArray type="Float64" NumberOfComponents="3" Name="Acceleration" format="ascii">
0 0 0
3.79628e-05 8.99058e-06 0
6.96526e-05 1.0527e-05 0
8.39156e-05 7.60474e-06 0
3.40953e-05 1.52469e-05 0
8.55914e-05 1.87432e-05 0
2.9475e-05 2.40604e-05 0
2.90385e-05 2.37635e-05 0
-1.788e-06 -0.000577737 0
-7.46965e-05 -0.000729591 0
-1.40057e-05 -0.000728484 0
-8.12727e-05 -0.00056345 0
-6.42278e-05 -5.86325e-06 0
-6.79472e-05 1.96738e-06 0
-1.55733e-06 -3.54408e-06 0
-0.000109424 1.12503e-05 0
-0.000174851 2.94475e-05 0
-0.000157894 3.57318e-05 0
-7.60044e-05 2.29306e-05 0
0 0 0
0 0 0
-7.70549e-05 1.24599e-05 0
-0.000158255 2.40279e-05 0
-0.0001741 2.62808e-05 0
-0.000107956 1.46441e-05 0
-1.25823e-06 -1.17361e-05 0
-1.96016e-05 0.000350449 0
0.00012376 -0.000283358 0
4.35447e-05 -0.000265797 0
2.15034e-06 0.000378351 0
7.5449e-05 -6.41367e-06 0
3.66707e-05 6.24247e-06 0
8.47327e-05 4.42478e-06 0
6.96636e-05 8.69611e-08 0
3.72228e-05 -4.06962e-06 0
0 0 0
      </DataArray> 
    </PointData>
    <CellData>
    </CellData>
  </Piece>
  </UnstructuredGrid>
</VTKFile>
