<?xml version="1.0"?>
<VTKFile type="UnstructuredGrid">
  <UnstructuredGrid>
  <Piece NumberOfPoints="36"  NumberOfCells="69">
    <Points>
      <DataArray type="Float64" NumberOfComponents="3" format="ascii">
0 0 0
-0.00286079 0.999422 0
-0.00750275 1.99928 0
-0.0117018 2.99957 0
-0.0132508 4.00029 0
-0.00974828 5.00141 0
0.0039522 6.00131 0
0.403931 5.99724 0
3.4047 5.93883 0
6.40179 5.89744 0
9.39642 5.89661 0
12.3908 5.93644 0
15.3874 5.9959 0
15.7875 6.00075 0
15.8012 4.99998 0
15.806 3.99941 0
15.8068 2.99913 0
15.805 1.99913 0
15.8023 0.999427 0
15.8 0 0
15.4 0 0
15.4023 0.99986 0
15.4051 1.99943 0
15.4068 2.99872 0
15.406 3.99772 0
15.4013 4.99642 0
12.4033 4.93684 0
9.40118 4.89688 0
6.39624 4.89742 0
3.3916 4.93851 0
0.390057 4.99847 0
0.386812 3.99964 0
0.388365 3.00038 0
0.392565 2.00069 0
0.397207 1.00057 0
0.4 0 0
      </DataArray>
    </Points>
    <Cells>
      <DataArray type="Int32" Name="connectivity" format="ascii">
0 1
1 2
2 3
3 4
4 5
5 6
6 7
7 8
8 9
9 10
10 11
11 12
12 13
13 14
14 15
15 16
16 17
17 18
18 19
19 20
20 21
21 22
22 23
23 24
24 25
25 26
26 27
27 28
28 29
29 30
30 31
31 32
32 33
33 34
34 35
0 35
0 34
1 34
1 33
2 33
2 32
3 32
3 31
4 31
4 30
5 30
5 7
30 7
30 8
29 8
29 9
28 9
28 10
27 10
27 11
26 11
26 12
25 12
25 13
25 14
24 14
24 15
23 15
23 16
22 16
22 17
21 17
21 18
20 18
      </DataArray>
      <DataArray type="Int32" Name="offsets" format="ascii">
2
4
6
8
10
12
14
16
18
20
22
24
26
28
30
32
34
36
38
40
42
44
46
48
50
52
54
56
58
60
62
64
66
68
70
72
74
76
78
80
82
84
86
88
90
92
94
96
98
100
102
104
106
108
110
112
114
116
118
120
122
124
126
128
130
132
134
136
138
      </DataArray>
      <DataArray type="UInt8" Name="types" format="ascii">
4
4
4
4
4
4
4
4
4
4
4
4
4
4
4
4
4
4
4
4
4
4
4
4
4
4
4
4
4
4
4
4
4
4
4
4
4
4
4
4
4
4
4
4
4
4
4
4
4
4
4
4
4
4
4
4
4
4
4
4
4
4
4
4
4
4
4
4
4
      </DataArray>
    </Cells>
    <PointData>
      <DataArray type="Float64" NumberOfComponents="3" Name="Displacement" format="ascii">
0 0 0
-0.00286079 -0.000578475 0
-0.00750275 -0.000722971 0
-0.0117018 -0.000429998 0
-0.0132508 0.000292864 0
-0.00974828 0.0014071 0
0.0039522 0.00131297 0
0.00393127 -0.0027624 0
0.0047038 -0.0611655 0
0.0017882 -0.102556 0
-0.0035764 -0.103394 0
-0.009223 -0.0635633 0
-0.0125906 -0.00409794 0
-0.0124826 0.000750921 0
0.00124308 -1.96023e-05 0
0.00598779 -0.000587668 0
0.00675829 -0.000873762 0
0.00504822 -0.000868899 0
0.00229317 -0.000573089 0
0 0 0
0 0 0
0.00233861 -0.00013985 0
0.00509445 -0.000567001 0
0.0068054 -0.00127882 0
0.00603884 -0.00228065 0
0.00130875 -0.0035789 0
0.00329458 -0.0631625 0
0.00118277 -0.103123 0
-0.0037634 -0.10258 0
-0.00839768 -0.0614855 0
-0.0099428 -0.00153411 0
-0.0131876 -0.000364582 0
-0.0116345 0.000377084 0
-0.00743529 0.000690774 0
-0.00279256 0.000566926 0
0 0 0
      </DataArray> 
      <DataArray type="Float64" NumberOfComponents="3" Name="Velocity" format="ascii">
0 0 0
-0.000164373 -2.24107e-05 0
-0.000362989 -2.34917e-05 0
-0.000479853 -1.09002e-05 0
-0.000452909 8.93915e-06 0
-0.000212755 1.75239e-05 0
9.50889e-05 1.1774e-05 0
9.37046e-05 -9.25197e-05 0
7.03281e-05 -0.00159214 0
-1.74155e-05 -0.00151184 0
-6.87293e-05 -0.00150855 0
-8.113e-05 -0.00161291 0
-0.000299556 -0.000156099 0
-0.000299181 -1.58497e-07 0
9.59922e-05 -1.68248e-05 0
0.000255428 -3.21363e-05 0
0.000324178 -4.7656e-05 0
0.000232614 -4.58466e-05 0
0.000105518 -2.89608e-05 0
0 0 0
0 0 0
0.000107346 -9.90946e-06 0
0.000234664 -2.915e-05 0
0.000325314 -5.96175e-05 0
0.000256318 -8.86256e-05 0
9.46059e-05 -0.000127837 0
8.6292e-05 -0.00185831 0
-9.20459e-05 -0.00169224 0
-9.9953e-05 -0.00166409 0
-0.000163513 -0.00181924 0
-0.000218285 -7.29072e-05 0
-0.000453447 -2.9763e-05 0
-0.000478351 5.463e-06 0
-0.000360338 2.77013e-05 0
-0.000160524 2.83132e-05 0
0 0 0
      </DataArray> 
      <DataArray type="Float64" NumberOfComponents="3" Name="Acceleration" format="ascii">
0 0 0
-2.51728e-06 8.29074e-06 0
1.41152e-05 1.23922e-05 0
3.38832e-05 1.34149e-05 0
6.95056e-05 5.63277e-06 0
3.84053e-05 7.30744e-06 0
-1.85174e-05 1.17328e-05 0
-1.95901e-05 1.80161e-05 0
-6.88359e-05 0.000149395 0
4.29969e-05 0.000250104 0
0.000101311 0.000264356 0
-4.2886e-05 0.000153616 0
7.09719e-05 -1.11814e-06 0
6.93806e-05 3.29601e-06 0
4.44579e-05 1.29286e-05 0
-7.0803e-06 2.93847e-05 0
2.12701e-05 3.12157e-05 0
7.66557e-06 2.54347e-05 0
3.03666e-05 6.87636e-06 0
0 0 0
0 0 0
3.11213e-05 1.815e-05 0
8.26429e-06 3.0902e-05 0
2.15861e-05 2.68117e-05 0
-7.90312e-06 2.07214e-05 0
4.49951e-05 5.51343e-06 0
-2.71679e-06 0.000606072 0
5.67768e-05 0.000313445 0
-7.79996e-05 0.000315702 0
9.9782e-05 0.000627192 0
3.96086e-05 5.56613e-06 0
7.12251e-05 2.94369e-06 0
3.29478e-05 4.50582e-06 0
1.43724e-05 3.71142e-06 0
-2.68398e-06 2.4434e-06 0
0 0 0
      </DataArray> 
    </PointData>
    <CellData>
    </CellData>
  </Piece>
  </UnstructuredGrid>
</VTKFile>
