<?xml version="1.0"?>
<VTKFile type="UnstructuredGrid">
  <UnstructuredGrid>
  <Piece NumberOfPoints="36"  NumberOfCells="69">
    <Points>
      <DataArray type="Float64" NumberOfComponents="3" format="ascii">
0 0 0
-0.00120392 0.999711 0
-0.00315672 1.99964 0
-0.00474539 2.99981 0
-0.00482928 4.00024 0
-0.00190867 5.00093 0
0.00736911 6.00089 0
0.407359 5.99804 0
3.40795 5.95899 0
6.40608 5.93068 0
9.40239 5.93047 0
12.3986 5.95819 0
15.3966 5.99741 0
15.7967 6.00037 0
15.8054 4.99973 0
15.807 3.99935 0
15.8061 2.99921 0
15.8039 1.9993 0
15.8016 0.999568 0
15.8 0 0
15.4 0 0
15.4016 0.999993 0
15.404 1.9998 0
15.4062 2.99938 0
15.4071 3.9987 0
15.4055 4.99774 0
12.4068 4.95853 0
9.4056 4.9307 0
6.40229 4.9307 0
3.3991 4.95883 0
0.397971 4.99878 0
0.395211 3.99951 0
0.395294 2.99997 0
0.396879 2.0002 0
0.39883 1.0002 0
0.4 0 0
      </DataArray>
    </Points>
    <Cells>
      <DataArray type="Int32" Name="connectivity" format="ascii">
0 1
1 2
2 3
3 4
4 5
5 6
6 7
7 8
8 9
9 10
10 11
11 12
12 13
13 14
14 15
15 16
16 17
17 18
18 19
19 20
20 21
21 22
22 23
23 24
24 25
25 26
26 27
27 28
28 29
29 30
30 31
31 32
32 33
33 34
34 35
0 35
0 34
1 34
1 33
2 33
2 32
3 32
3 31
4 31
4 30
5 30
5 7
30 7
30 8
29 8
29 9
28 9
28 10
27 10
27 11
26 11
26 12
25 12
25 13
25 14
24 14
24 15
23 15
23 16
22 16
22 17
21 17
21 18
20 18
      </DataArray>
      <DataArray type="Int32" Name="offsets" format="ascii">
2
4
6
8
10
12
14
16
18
20
22
24
26
28
30
32
34
36
38
40
42
44
46
48
50
52
54
56
58
60
62
64
66
68
70
72
74
76
78
80
82
84
86
88
90
92
94
96
98
100
102
104
106
108
110
112
114
116
118
120
122
124
126
128
130
132
134
136
138
      </DataArray>
      <DataArray type="UInt8" Name="types" format="ascii">
4
4
4
4
4
4
4
4
4
4
4
4
4
4
4
4
4
4
4
4
4
4
4
4
4
4
4
4
4
4
4
4
4
4
4
4
4
4
4
4
4
4
4
4
4
4
4
4
4
4
4
4
4
4
4
4
4
4
4
4
4
4
4
4
4
4
4
4
4
      </DataArray>
    </Cells>
    <PointData>
      <DataArray type="Float64" NumberOfComponents="3" Name="Displacement" format="ascii">
0 0 0
-0.00120392 -0.000288888 0
-0.00315672 -0.00035603 0
-0.00474539 -0.000187645 0
-0.00482928 0.000240244 0
-0.00190867 0.000928472 0
0.00736911 0.000885025 0
0.00735934 -0.00195713 0
0.00795024 -0.0410146 0
0.00607703 -0.0693187 0
0.0023925 -0.069526 0
-0.00142653 -0.041805 0
-0.0034178 -0.00259137 0
-0.00332123 0.000367603 0
0.00541749 -0.000268986 0
0.00704458 -0.00065488 0
0.00613163 -0.000790612 0
0.00393023 -0.000702763 0
0.00159234 -0.000432405 0
0 0 0
0 0 0
0.00162056 -6.66541e-06 0
0.00396325 -0.000200761 0
0.00617002 -0.000621376 0
0.00708902 -0.0012961 0
0.00546912 -0.0022628 0
0.00684657 -0.041467 0
0.00560193 -0.0692993 0
0.00228791 -0.0693038 0
-0.000898726 -0.0411695 0
-0.00202852 -0.0012152 0
-0.00478887 -0.000492255 0
-0.00470621 -3.07777e-05 0
-0.00312053 0.000197614 0
-0.00116963 0.000204337 0
0 0 0
      </DataArray> 
      <DataArray type="Float64" NumberOfComponents="3" Name="Velocity" format="ascii">
0 0 0
0.00010033 -1.37052e-05 0
0.000149496 -3.53129e-05 0
7.69531e-05 -4.66323e-05 0
-6.0704e-05 -2.94498e-05 0
-8.38236e-05 2.71482e-05 0
0.000445185 2.36925e-05 0
0.000443785 -0.000122677 0
0.000463587 -0.00253448 0
0.000367379 -0.00482499 0
8.12686e-05 -0.00494185 0
-0.000233344 -0.00268188 0
-0.000362632 -0.000103064 0
-0.000356664 4.05865e-05 0
0.00011471 -8.30738e-06 0
-5.09349e-05 -1.47493e-05 0
-0.000252099 9.29663e-06 0
-0.000264186 2.80683e-05 0
-0.000153597 2.8491e-05 0
0 0 0
0 0 0
-0.000156756 1.99039e-06 0
-0.000265322 1.45727e-05 0
-0.00024948 2.31104e-05 0
-4.42723e-05 -4.86012e-06 0
0.000124867 -8.0715e-05 0
0.000309869 -0.00244584 0
0.000299308 -0.00472109 0
6.94104e-05 -0.00465028 0
-0.000109965 -0.00236934 0
-9.57124e-05 -6.63969e-05 0
-5.52347e-05 -2.99166e-05 0
8.02682e-05 -2.17065e-05 0
0.000149803 -2.43575e-05 0
9.84894e-05 -1.99401e-05 0
0 0 0
      </DataArray> 
      <DataArray type="Float64" NumberOfComponents="3" Name="Acceleration" format="ascii">
0 0 0
-4.07993e-05 2.48886e-06 0
-4.29005e-05 3.75098e-06 0
-8.23891e-05 1.55347e-05 0
-2.8504e-05 1.68413e-05 0
-4.44571e-05 2.12502e-05 0
3.46233e-05 1.72321e-05 0
3.2462e-05 1.03659e-06 0
-2.46022e-05 0.000525179 0
1.15554e-06 7.62815e-05 0
-6.75088e-05 5.16844e-05 0
1.78187e-05 0.000508339 0
2.74535e-05 5.07536e-05 0
2.88108e-05 -8.54628e-06 0
-6.13574e-05 -4.12873e-06 0
0.000128216 -3.523e-05 0
0.000104346 -4.2339e-05 0
0.000136587 -4.3332e-05 0
6.62475e-05 -2.52149e-05 0
0 0 0
0 0 0
6.69884e-05 -2.34309e-05 0
0.000136426 -4.33973e-05 0
0.000104342 -3.76147e-05 0
0.000125838 -3.0323e-05 0
-5.83921e-05 2.13957e-05 0
6.73832e-05 -0.000122005 0
-1.7237e-05 2.39798e-05 0
4.27652e-05 3.29665e-05 0
-1.54806e-05 -0.000112728 0
-3.82961e-05 2.18096e-05 0
-2.91625e-05 1.0422e-05 0
-8.35735e-05 1.19281e-05 0
-4.24199e-05 7.06089e-06 0
-4.05237e-05 6.69374e-06 0
0 0 0
      </DataArray> 
    </PointData>
    <CellData>
    </CellData>
  </Piece>
  </UnstructuredGrid>
</VTKFile>
