<?xml version="1.0"?>
<VTKFile type="UnstructuredGrid">
  <UnstructuredGrid>
  <Piece NumberOfPoints="36"  NumberOfCells="69">
    <Points>
      <DataArray type="Float64" NumberOfComponents="3" format="ascii">
0 0 0
-0.000632386 0.999813 0
-0.0018537 1.99973 0
-0.00321909 2.99979 0
-0.004005 4.00003 0
-0.00322764 5.00048 0
0.00180762 6.00047 0
0.401805 5.99902 0
3.40226 5.97789 0
6.40143 5.9596 0
9.39916 5.95937 0
12.3968 5.97729 0
15.3959 5.99875 0
15.796 6.00034 0
15.8008 4.99997 0
15.8015 3.9998 0
15.8012 2.99977 0
15.8006 1.99983 0
15.8002 0.999917 0
15.8 0 0
15.4 0 0
15.4002 0.999956 0
15.4006 1.99988 0
15.4012 2.99973 0
15.4015 3.99942 0
15.4008 4.9989 0
12.4016 4.97744 0
9.40109 4.95959 0
6.39909 4.95967 0
3.39716 4.97774 0
0.396699 4.99949 0
0.396026 3.99988 0
0.396806 3.00009 0
0.398166 2.00016 0
0.399384 1.00013 0
0.4 0 0
      </DataArray>
    </Points>
    <Cells>
      <DataArray type="Int32" Name="connectivity" format="ascii">
0 1
1 2
2 3
3 4
4 5
5 6
6 7
7 8
8 9
9 10
10 11
11 12
12 13
13 14
14 15
15 16
16 17
17 18
18 19
19 20
20 21
21 22
22 23
23 24
24 25
25 26
26 27
27 28
28 29
29 30
30 31
31 32
32 33
33 34
34 35
0 35
0 34
1 34
1 33
2 33
2 32
3 32
3 31
4 31
4 30
5 30
5 7
30 7
30 8
29 8
29 9
28 9
28 10
27 10
27 11
26 11
26 12
25 12
25 13
25 14
24 14
24 15
23 15
23 16
22 16
22 17
21 17
21 18
20 18
      </DataArray>
      <DataArray type="Int32" Name="offsets" format="ascii">
2
4
6
8
10
12
14
16
18
20
22
24
26
28
30
32
34
36
38
40
42
44
46
48
50
52
54
56
58
60
62
64
66
68
70
72
74
76
78
80
82
84
86
88
90
92
94
96
98
100
102
104
106
108
110
112
114
116
118
120
122
124
126
128
130
132
134
136
138
      </DataArray>
      <DataArray type="UInt8" Name="types" format="ascii">
4
4
4
4
4
4
4
4
4
4
4
4
4
4
4
4
4
4
4
4
4
4
4
4
4
4
4
4
4
4
4
4
4
4
4
4
4
4
4
4
4
4
4
4
4
4
4
4
4
4
4
4
4
4
4
4
4
4
4
4
4
4
4
4
4
4
4
4
4
      </DataArray>
    </Cells>
    <PointData>
      <DataArray type="Float64" NumberOfComponents="3" Name="Displacement" format="ascii">
0 0 0
-0.000632386 -0.000186614 0
-0.0018537 -0.000268158 0
-0.00321909 -0.000207067 0
-0.004005 3.09803e-05 0
-0.00322764 0.000480926 0
0.00180762 0.000467992 0
0.00180476 -0.000981445 0
0.00226416 -0.0221063 0
0.00143493 -0.0403971 0
-0.00084355 -0.0406269 0
-0.00318014 -0.0227077 0
-0.00407627 -0.00124891 0
-0.00401815 0.000338946 0
0.000751639 -2.82914e-05 0
0.0014771 -0.000204261 0
0.00115078 -0.000227405 0
0.000611169 -0.000169461 0
0.000204361 -8.34848e-05 0
0 0 0
0 0 0
0.000206567 -4.40454e-05 0
0.000620043 -0.000117255 0
0.00116959 -0.000272628 0
0.00150585 -0.000582501 0
0.000787657 -0.00109719 0
0.00159374 -0.0225561 0
0.00108734 -0.0404097 0
-0.000910199 -0.0403341 0
-0.00283922 -0.0222552 0
-0.00330149 -0.000514188 0
-0.00397428 -0.000124924 0
-0.00319377 8.88263e-05 0
-0.00183407 0.000160999 0
-0.000616496 0.000127911 0
0 0 0
      </DataArray> 
      <DataArray type="Float64" NumberOfComponents="3" Name="Velocity" format="ascii">
0 0 0
-0.000107792 2.00034e-05 0
-0.000129849 5.02589e-05 0
3.87035e-05 6.44646e-05 0
0.000281509 4.65365e-05 0
0.000425133 -2.21829e-05 0
-0.000132232 -1.96994e-05 0
-0.000130886 0.00011845 0
-0.000165097 0.00258564 0
-4.28939e-05 0.00447548 0
0.000224057 0.00458668 0
0.000520492 0.00273349 0
0.000669856 9.23744e-05 0
0.000661022 -2.84829e-05 0
0.000207147 2.52956e-05 0
0.000356344 3.40711e-05 0
0.00053596 2.91895e-06 0
0.000479215 -2.96965e-05 0
0.000248611 -3.85525e-05 0
0 0 0
0 0 0
0.00025477 2.56408e-05 0
0.000481735 2.02379e-05 0
0.000533506 6.46267e-06 0
0.000349957 2.36864e-05 0
0.000197344 8.31571e-05 0
4.48967e-06 0.00273296 0
2.37274e-05 0.00488718 0
0.000238882 0.00479105 0
0.000438772 0.00260964 0
0.000437704 4.79255e-05 0
0.00027497 1.0376e-05 0
3.47564e-05 5.09192e-06 0
-0.000130273 1.65315e-05 0
-0.000105428 1.80426e-05 0
0 0 0
      </DataArray> 
      <DataArray type="Float64" NumberOfComponents="3" Name="Acceleration" format="ascii">
0 0 0
-3.80464e-05 -5.29571e-06 0
-0.000126649 4.86552e-06 0
-0.000115688 1.10472e-05 0
-0.000121219 2.40473e-05 0
1.95149e-05 1.1641e-05 0
-2.47329e-05 1.10965e-05 0
-2.29018e-05 1.76607e-05 0
3.03006e-05 -9.0159e-05 0
-7.02594e-05 0.000118248 0
4.06331e-05 8.97008e-05 0
3.8969e-05 -0.000119376 0
-3.46711e-05 -3.33893e-05 0
-3.87622e-05 4.83616e-06 0
6.8098e-05 3.15779e-06 0
0.000171395 -1.3317e-06 0
0.000246356 -1.50071e-05 0
0.000180763 -1.96138e-05 0
0.000104261 -1.82246e-05 0
0 0 0
0 0 0
0.000106494 2.23061e-06 0
0.000182295 -3.48761e-06 0
0.000246475 -2.18265e-05 0
0.000171008 -3.17484e-05 0
6.52896e-05 -3.66004e-05 0
5.98794e-06 2.11347e-05 0
1.85771e-06 -0.000301897 0
-2.49722e-05 -0.000349209 0
-3.91604e-05 -3.47935e-06 0
1.63893e-05 4.65696e-07 0
-0.000123317 7.14914e-06 0
-0.000115504 6.98517e-06 0
-0.000126091 1.36046e-05 0
-3.66184e-05 9.06567e-06 0
0 0 0
      </DataArray> 
    </PointData>
    <CellData>
    </CellData>
  </Piece>
  </UnstructuredGrid>
</VTKFile>
