<?xml version="1.0"?>
<VTKFile type="UnstructuredGrid">
  <UnstructuredGrid>
  <Piece NumberOfPoints="36"  NumberOfCells="69">
    <Points>
      <DataArray type="Float64" NumberOfComponents="3" format="ascii">
0 0 0
-0.00130295 0.999742 0
-0.00340833 1.99968 0
-0.00531137 2.99982 0
-0.00605193 4.00015 0
-0.00449698 5.00067 0
0.00179693 6.00065 0
0.401793 5.99878 0
3.40232 5.97204 0
6.40109 5.95221 0
9.39858 5.95151 0
12.3959 5.97051 0
15.3945 5.99819 0
15.7946 6.00035 0
15.8008 4.99994 0
15.8025 3.9997 0
15.8026 2.99961 0
15.8018 1.99965 0
15.8008 0.999787 0
15.8 0 0
15.4 0 0
15.4008 0.999928 0
15.4018 1.99976 0
15.4026 2.99948 0
15.4026 3.99903 0
15.4009 4.99841 0
12.4017 4.9707 0
9.40075 4.95163 0
6.39841 4.95219 0
3.39621 4.97189 0
0.395417 4.99933 0
0.393978 3.99985 0
0.39472 3.00018 0
0.396623 2.00032 0
0.398728 1.00026 0
0.4 0 0
      </DataArray>
    </Points>
    <Cells>
      <DataArray type="Int32" Name="connectivity" format="ascii">
0 1
1 2
2 3
3 4
4 5
5 6
6 7
7 8
8 9
9 10
10 11
11 12
12 13
13 14
14 15
15 16
16 17
17 18
18 19
19 20
20 21
21 22
22 23
23 24
24 25
25 26
26 27
27 28
28 29
29 30
30 31
31 32
32 33
33 34
34 35
0 35
0 34
1 34
1 33
2 33
2 32
3 32
3 31
4 31
4 30
5 30
5 7
30 7
30 8
29 8
29 9
28 9
28 10
27 10
27 11
26 11
26 12
25 12
25 13
25 14
24 14
24 15
23 15
23 16
22 16
22 17
21 17
21 18
20 18
      </DataArray>
      <DataArray type="Int32" Name="offsets" format="ascii">
2
4
6
8
10
12
14
16
18
20
22
24
26
28
30
32
34
36
38
40
42
44
46
48
50
52
54
56
58
60
62
64
66
68
70
72
74
76
78
80
82
84
86
88
90
92
94
96
98
100
102
104
106
108
110
112
114
116
118
120
122
124
126
128
130
132
134
136
138
      </DataArray>
      <DataArray type="UInt8" Name="types" format="ascii">
4
4
4
4
4
4
4
4
4
4
4
4
4
4
4
4
4
4
4
4
4
4
4
4
4
4
4
4
4
4
4
4
4
4
4
4
4
4
4
4
4
4
4
4
4
4
4
4
4
4
4
4
4
4
4
4
4
4
4
4
4
4
4
4
4
4
4
4
4
      </DataArray>
    </Cells>
    <PointData>
      <DataArray type="Float64" NumberOfComponents="3" Name="Displacement" format="ascii">
0 0 0
-0.00130295 -0.00025801 0
-0.00340833 -0.000318712 0
-0.00531137 -0.000183992 0
-0.00605193 0.000149045 0
-0.00449698 0.000668631 0
0.00179693 0.00064872 0
0.00179309 -0.00121707 0
0.00231731 -0.0279622 0
0.00109433 -0.0477927 0
-0.0014228 -0.0484928 0
-0.00406926 -0.0294868 0
-0.00545126 -0.00181026 0
-0.00538747 0.000353014 0
0.000849559 -5.71392e-05 0
0.0025451 -0.0003042 0
0.00256978 -0.000390662 0
0.00177159 -0.000349149 0
0.000773465 -0.000213147 0
0 0 0
0 0 0
0.00078712 -7.15236e-05 0
0.00178913 -0.000235247 0
0.00259271 -0.000522838 0
0.002573 -0.000968602 0
0.000882342 -0.00159476 0
0.00174828 -0.0292956 0
0.000754976 -0.0483698 0
-0.00158649 -0.047813 0
-0.00378606 -0.0281081 0
-0.00458333 -0.000674489 0
-0.00602167 -0.000145931 0
-0.0052803 0.000184559 0
-0.00337738 0.000321498 0
-0.00127162 0.000260386 0
0 0 0
      </DataArray> 
      <DataArray type="Float64" NumberOfComponents="3" Name="Velocity" format="ascii">
0 0 0
-2.5384e-05 1.83516e-05 0
3.6979e-05 3.25966e-05 0
0.000146473 3.85264e-05 0
0.000307471 1.57718e-05 0
0.000306199 -3.87974e-05 0
-0.000227372 -3.52202e-05 0
-0.000227626 0.000108986 0
-0.000305909 0.00249511 0
-0.000248127 0.00504016 0
0.000107873 0.0051345 0
0.000397984 0.0026411 0
0.000486562 0.000117506 0
0.000477786 -4.60913e-05 0
-2.13411e-05 -3.10496e-08 0
6.92859e-05 6.76779e-06 0
0.0001639 -4.63089e-06 0
0.000181156 -1.81683e-05 0
9.185e-05 -1.74e-05 0
0 0 0
0 0 0
9.40289e-05 2.25306e-06 0
0.000181664 -5.22581e-06 0
0.00016185 -4.21655e-06 0
6.41231e-05 2.05104e-05 0
-2.82988e-05 9.12153e-05 0
-0.000152601 0.00258428 0
-0.000136705 0.00483944 0
7.57076e-05 0.00477279 0
0.000321036 0.00250234 0
0.000316478 5.13677e-05 0
0.000302638 1.1919e-05 0
0.000143574 1.24126e-06 0
3.59533e-05 -4.56207e-07 0
-2.52617e-05 2.69161e-06 0
0 0 0
      </DataArray> 
      <DataArray type="Float64" NumberOfComponents="3" Name="Acceleration" format="ascii">
0 0 0
5.47926e-09 1.94259e-06 0
1.13415e-05 9.55059e-07 0
-7.8894e-06 4.10223e-06 0
2.73643e-05 -2.52376e-07 0
1.74673e-05 3.37009e-06 0
5.41523e-05 4.20297e-06 0
5.04427e-05 -9.68157e-06 0
-7.40729e-05 0.000179084 0
4.27811e-05 -0.000440741 0
-3.15903e-05 -0.000457575 0
3.77017e-05 0.000162989 0
-3.63262e-05 -3.34135e-05 0
-4.22605e-05 2.73879e-05 0
1.54846e-05 3.65087e-05 0
6.97949e-05 4.17385e-05 0
0.000118946 3.29764e-05 0
0.000111636 1.55551e-05 0
5.39578e-05 3.64897e-07 0
0 0 0
0 0 0
5.64297e-05 2.42769e-05 0
0.000112699 3.14505e-05 0
0.000118463 2.53857e-05 0
7.04659e-05 1.12155e-05 0
1.66013e-05 -1.09206e-05 0
-6.26825e-06 0.00015147 0
3.5708e-05 0.000177064 0
4.73348e-05 0.000134095 0
-6.37501e-05 7.32508e-05 0
1.32793e-05 -5.87753e-06 0
2.78845e-05 -4.21465e-06 0
-7.96186e-06 1.5023e-06 0
1.17594e-05 1.58588e-07 0
-3.63681e-07 4.24845e-07 0
0 0 0
      </DataArray> 
    </PointData>
    <CellData>
    </CellData>
  </Piece>
  </UnstructuredGrid>
</VTKFile>
