<?xml version="1.0"?>
<VTKFile type="UnstructuredGrid">
  <UnstructuredGrid>
  <Piece NumberOfPoints="36"  NumberOfCells="69">
    <Points>
      <DataArray type="Float64" NumberOfComponents="3" format="ascii">
0 0 0
-0.00294225 0.999559 0
-0.0069306 1.99957 0
-0.00958546 2.99999 0
-0.00885476 4.0007 0
-0.00312783 5.00165 0
0.0110574 6.00155 0
0.411032 5.99708 0
3.41162 5.93869 0
6.40882 5.89618 0
9.40339 5.8959 0
12.3977 5.93729 0
15.3947 5.99573 0
15.7948 6.00051 0
15.8085 4.9997 0
15.8133 3.999 0
15.8131 2.99857 0
15.8094 1.99854 0
15.8041 0.999004 0
15.8 0 0
15.4 0 0
15.4042 1.00002 0
15.4095 1.99955 0
15.4132 2.99869 0
15.4133 3.99756 0
15.4086 4.99623 0
12.4104 4.93768 0
9.40838 4.89619 0
6.40326 4.89617 0
3.3984 4.93837 0
0.396702 4.99815 0
0.391185 3.9993 0
0.39047 3.00012 0
0.393136 2.00055 0
0.397133 1.00052 0
0.4 0 0
      </DataArray>
    </Points>
    <Cells>
      <DataArray type="Int32" Name="connectivity" format="ascii">
0 1
1 2
2 3
3 4
4 5
5 6
6 7
7 8
8 9
9 10
10 11
11 12
12 13
13 14
14 15
15 16
16 17
17 18
18 19
19 20
20 21
21 22
22 23
23 24
24 25
25 26
26 27
27 28
28 29
29 30
30 31
31 32
32 33
33 34
34 35
0 35
0 34
1 34
1 33
2 33
2 32
3 32
3 31
4 31
4 30
5 30
5 7
30 7
30 8
29 8
29 9
28 9
28 10
27 10
27 11
26 11
26 12
25 12
25 13
25 14
24 14
24 15
23 15
23 16
22 16
22 17
21 17
21 18
20 18
      </DataArray>
      <DataArray type="Int32" Name="offsets" format="ascii">
2
4
6
8
10
12
14
16
18
20
22
24
26
28
30
32
34
36
38
40
42
44
46
48
50
52
54
56
58
60
62
64
66
68
70
72
74
76
78
80
82
84
86
88
90
92
94
96
98
100
102
104
106
108
110
112
114
116
118
120
122
124
126
128
130
132
134
136
138
      </DataArray>
      <DataArray type="UInt8" Name="types" format="ascii">
4
4
4
4
4
4
4
4
4
4
4
4
4
4
4
4
4
4
4
4
4
4
4
4
4
4
4
4
4
4
4
4
4
4
4
4
4
4
4
4
4
4
4
4
4
4
4
4
4
4
4
4
4
4
4
4
4
4
4
4
4
4
4
4
4
4
4
4
4
      </DataArray>
    </Cells>
    <PointData>
      <DataArray type="Float64" NumberOfComponents="3" Name="Displacement" format="ascii">
0 0 0
-0.00294225 -0.000440659 0
-0.0069306 -0.000426733 0
-0.00958546 -1.49338e-05 0
-0.00885476 0.000703111 0
-0.00312783 0.00164974 0
0.0110574 0.00154938 0
0.0110324 -0.00292031 0
0.0116218 -0.0613126 0
0.00881894 -0.103815 0
0.00339258 -0.104101 0
-0.00225489 -0.0627082 0
-0.0053216 -0.00427141 0
-0.0052054 0.000512642 0
0.00853974 -0.00029774 0
0.0132819 -0.000999234 0
0.0131294 -0.00143111 0
0.00941034 -0.00146326 0
0.00412858 -0.000996336 0
0 0 0
0 0 0
0.00421167 2.00029e-05 0
0.00948219 -0.000453622 0
0.013184 -0.00131023 0
0.0133241 -0.00243831 0
0.00858757 -0.00376738 0
0.0104402 -0.0623196 0
0.00838316 -0.103805 0
0.00325749 -0.103832 0
-0.001599 -0.0616338 0
-0.00329764 -0.0018462 0
-0.008815 -0.000704056 0
-0.00953048 0.000117956 0
-0.0068638 0.000548158 0
-0.00286728 0.000523935 0
0 0 0
      </DataArray> 
      <DataArray type="Float64" NumberOfComponents="3" Name="Velocity" format="ascii">
0 0 0
-9.37319e-05 -1.62413e-05 0
-0.000212378 -1.73842e-05 0
-0.000268745 -9.22475e-06 0
-0.000232133 5.48624e-06 0
-4.47653e-05 1.48025e-05 0
0.000226507 9.72113e-06 0
0.000226065 -8.03203e-05 0
0.000237528 -0.00140469 0
0.000154064 -0.00164545 0
7.41865e-05 -0.00160807 0
2.09091e-05 -0.00137367 0
-0.000110966 -0.000116224 0
-0.00011059 4.34924e-06 0
0.000170805 -5.43392e-06 0
0.000271887 -1.52053e-05 0
0.000288959 -2.5397e-05 0
0.000209622 -2.85991e-05 0
8.56601e-05 -1.98884e-05 0
0 0 0
0 0 0
8.77391e-05 4.5767e-06 0
0.000211481 -5.45803e-06 0
0.000289987 -2.66115e-05 0
0.000272932 -5.35277e-05 0
0.00017268 -8.93758e-05 0
0.000218989 -0.00144743 0
0.000120538 -0.00185856 0
5.64532e-05 -0.00190601 0
-8.60119e-06 -0.00149657 0
-4.91253e-05 -6.26795e-05 0
-0.000232321 -3.09484e-05 0
-0.00026769 -5.80987e-06 0
-0.000210615 1.14778e-05 0
-9.12318e-05 1.44857e-05 0
0 0 0
      </DataArray> 
      <DataArray type="Float64" NumberOfComponents="3" Name="Acceleration" format="ascii">
0 0 0
0.000134701 6.79089e-06 0
0.000216926 5.29692e-06 0
0.00029552 -1.24096e-05 0
0.000184284 -1.3502e-05 0
0.000134241 -1.5092e-05 0
3.90256e-06 -1.06945e-05 0
4.48808e-06 2.642e-05 0
-5.7916e-06 -4.67048e-05 0
-0.000123675 0.000353413 0
4.36452e-05 0.000331621 0
-3.62492e-05 -9.28598e-05 0
1.00089e-05 5.45506e-05 0
1.13808e-05 1.01377e-05 0
-5.5685e-05 2.89448e-06 0
-0.000286735 2.20513e-05 0
-0.00036891 4.21096e-05 0
-0.000330818 5.32197e-05 0
-0.000150056 3.67247e-05 0
0 0 0
0 0 0
-0.000153216 7.33073e-06 0
-0.000332867 3.13242e-05 0
-0.000369161 5.06084e-05 0
-0.000284456 6.1414e-05 0
-5.6446e-05 4.82318e-05 0
-0.000108428 0.000553035 0
0.000140384 0.000348859 0
2.46655e-05 0.000360033 0
6.76073e-05 0.000575428 0
0.000128158 4.42137e-06 0
0.00018649 6.92332e-06 0
0.000296172 -1.05546e-05 0
0.000215458 -1.74118e-05 0
0.000132255 -2.08972e-05 0
0 0 0
      </DataArray> 
    </PointData>
    <CellData>
    </CellData>
  </Piece>
  </UnstructuredGrid>
</VTKFile>
