<?xml version="1.0"?>
<VTKFile type="UnstructuredGrid">
  <UnstructuredGrid>
  <Piece NumberOfPoints="36"  NumberOfCells="69">
    <Points>
      <DataArray type="Float64" NumberOfComponents="3" format="ascii">
0 0 0
0.000685691 1.00007 0
0.00169433 2.00008 0
0.00266504 3.00006 0
0.00341319 4.00005 0
0.00407601 5.0001 0
0.00527236 6.0001 0
0.405272 5.99968 0
3.40533 5.99562 0
6.40528 5.98935 0
9.40457 5.9893 0
12.4038 5.99588 0
15.4038 5.99994 0
15.8039 5.99994 0
15.8044 4.99974 0
15.8027 3.99971 0
15.801 2.9998 0
15.8 1.99992 0
15.7998 0.999994 0
15.8 0 0
15.4 0 0
15.3998 1.00006 0
15.4 2.00016 0
15.401 3.00023 0
15.4027 4.00019 0
15.4044 4.99997 0
12.4048 4.99591 0
9.40507 4.98949 0
6.40454 4.98946 0
3.40398 4.99555 0
0.404066 4.99973 0
0.403418 3.99974 0
0.402664 2.99973 0
0.401687 1.99975 0
0.400674 0.999833 0
0.4 0 0
      </DataArray>
    </Points>
    <Cells>
      <DataArray type="Int32" Name="connectivity" format="ascii">
0 1
1 2
2 3
3 4
4 5
5 6
6 7
7 8
8 9
9 10
10 11
11 12
12 13
13 14
14 15
15 16
16 17
17 18
18 19
19 20
20 21
21 22
22 23
23 24
24 25
25 26
26 27
27 28
28 29
29 30
30 31
31 32
32 33
33 34
34 35
0 35
0 34
1 34
1 33
2 33
2 32
3 32
3 31
4 31
4 30
5 30
5 7
30 7
30 8
29 8
29 9
28 9
28 10
27 10
27 11
26 11
26 12
25 12
25 13
25 14
24 14
24 15
23 15
23 16
22 16
22 17
21 17
21 18
20 18
      </DataArray>
      <DataArray type="Int32" Name="offsets" format="ascii">
2
4
6
8
10
12
14
16
18
20
22
24
26
28
30
32
34
36
38
40
42
44
46
48
50
52
54
56
58
60
62
64
66
68
70
72
74
76
78
80
82
84
86
88
90
92
94
96
98
100
102
104
106
108
110
112
114
116
118
120
122
124
126
128
130
132
134
136
138
      </DataArray>
      <DataArray type="UInt8" Name="types" format="ascii">
4
4
4
4
4
4
4
4
4
4
4
4
4
4
4
4
4
4
4
4
4
4
4
4
4
4
4
4
4
4
4
4
4
4
4
4
4
4
4
4
4
4
4
4
4
4
4
4
4
4
4
4
4
4
4
4
4
4
4
4
4
4
4
4
4
4
4
4
4
      </DataArray>
    </Cells>
    <PointData>
      <DataArray type="Float64" NumberOfComponents="3" Name="Displacement" format="ascii">
0 0 0
0.000685691 7.13987e-05 0
0.00169433 7.96274e-05 0
0.00266504 5.8472e-05 0
0.00341319 5.38489e-05 0
0.00407601 0.000100024 0
0.00527236 9.86592e-05 0
0.00527214 -0.000318651 0
0.00532722 -0.00438209 0
0.00528173 -0.010649 0
0.00456634 -0.0106998 0
0.00382373 -0.00411969 0
0.00381762 -6.03433e-05 0
0.00385057 -6.15504e-05 0
0.00437984 -0.00026215 0
0.00268319 -0.000285594 0
0.00103175 -0.000198862 0
2.3819e-05 -8.1316e-05 0
-0.000200869 -5.67396e-06 0
0 0 0
0 0 0
-0.000209593 6.20417e-05 0
2.3304e-05 0.000164528 0
0.00104345 0.000233553 0
0.0027064 0.000189321 0
0.00440752 -3.39299e-05 0
0.00484843 -0.00408917 0
0.00507192 -0.0105132 0
0.0045353 -0.0105411 0
0.00398156 -0.00445386 0
0.00406613 -0.000270017 0
0.00341832 -0.000263023 0
0.00266383 -0.00027206 0
0.00168682 -0.000251219 0
0.000673988 -0.000166981 0
0 0 0
      </DataArray> 
      <DataArray type="Float64" NumberOfComponents="3" Name="Velocity" format="ascii">
0 0 0
4.38727e-05 -3.05146e-06 0
8.55968e-05 -1.10292e-05 0
7.56129e-05 -1.6019e-05 0
1.93854e-05 -7.35865e-06 0
1.11257e-05 2.00079e-05 0
0.00029959 1.84144e-05 0
0.000299424 -5.65609e-05 0
0.000331709 -0.00103476 0
0.000296836 -0.00286589 0
0.000146659 -0.00289 0
-4.27477e-05 -0.00108351 0
-6.31464e-05 -2.30067e-05 0
-5.66691e-05 3.56507e-05 0
0.000192615 1.30147e-06 0
0.000143583 -1.67158e-05 0
3.35092e-05 -1.54382e-05 0
-8.4164e-06 -8.682e-06 0
-3.87879e-06 -3.20401e-06 0
0 0 0
0 0 0
-4.55702e-06 -4.09433e-06 0
-8.76518e-06 2.00752e-08 0
3.48356e-05 7.03351e-06 0
0.000146263 2.68575e-07 0
0.000194271 -2.34979e-05 0
0.000241599 -0.00123848 0
0.000315616 -0.00311488 0
0.000124907 -0.00309165 0
-7.71599e-05 -0.00119166 0
4.99988e-06 -2.37387e-05 0
2.17149e-05 -1.05054e-05 0
7.6878e-05 -1.06607e-05 0
8.53523e-05 -1.30467e-05 0
4.29218e-05 -9.59692e-06 0
0 0 0
      </DataArray> 
      <DataArray type="Float64" NumberOfComponents="3" Name="Acceleration" format="ascii">
0 0 0
-6.83008e-05 -2.85786e-06 0
-0.000115887 -1.49091e-06 0
-0.000155864 7.98496e-06 0
-0.000118106 1.34949e-05 0
-8.36798e-05 2.48883e-05 0
-6.92511e-07 2.78284e-05 0
-1.10338e-06 -6.46634e-06 0
-1.19566e-05 -0.000369389 0
-5.57315e-05 -0.000113982 0
-3.1302e-06 -6.15728e-05 0
-5.50337e-05 -0.000321481 0
-4.86972e-05 -2.98774e-05 0
-5.48504e-05 -1.22569e-05 0
-2.85145e-05 5.90188e-06 0
0.000225306 -7.09403e-06 0
0.000269472 -1.42664e-05 0
0.000248935 -2.46556e-05 0
9.79643e-05 -1.92357e-05 0
0 0 0
0 0 0
0.000101107 8.22533e-06 0
0.000250956 -9.00179e-06 0
0.000269835 -3.07893e-05 0
0.000222991 -5.65854e-05 0
-2.43334e-05 -4.23013e-05 0
9.34315e-05 -1.69057e-07 0
1.28957e-05 -0.000600054 0
-8.30741e-05 -0.00064556 0
-1.10744e-05 4.60853e-06 0
-8.28605e-05 -7.58421e-06 0
-0.000117096 -3.72512e-06 0
-0.00015617 6.26771e-06 0
-0.000114706 1.06186e-05 0
-6.69792e-05 1.15089e-05 0
0 0 0
      </DataArray> 
    </PointData>
    <CellData>
    </CellData>
  </Piece>
  </UnstructuredGrid>
</VTKFile>
