<?xml version="1.0"?>
<VTKFile type="UnstructuredGrid">
  <UnstructuredGrid>
  <Piece NumberOfPoints="36"  NumberOfCells="69">
    <Points>
      <DataArray type="Float64" NumberOfComponents="3" format="ascii">
0 0 0
-0.00138429 0.999729 0
-0.00363127 1.99967 0
-0.00570463 2.99982 0
-0.0065208 4.00019 0
-0.00486238 5.00078 0
0.00224004 6.00076 0
0.402235 5.99866 0
3.40282 5.96913 0
6.40164 5.94394 0
9.39857 5.94327 0
12.3953 5.96765 0
15.394 5.99806 0
15.7941 6.00047 0
15.8011 5.00001 0
15.8031 3.99971 0
15.8032 2.99959 0
15.8023 1.9996 0
15.801 0.99974 0
15.8 0 0
15.4 0 0
15.401 0.999948 0
15.4023 1.99977 0
15.4033 2.99945 0
15.4032 3.99896 0
15.4011 4.99828 0
12.4021 4.96791 0
9.40126 4.94356 0
6.3984 4.94401 0
3.39572 4.96898 0
0.395039 4.99929 0
0.393514 3.99986 0
0.39433 3.00021 0
0.396402 2.00035 0
0.398649 1.00028 0
0.4 0 0
      </DataArray>
    </Points>
    <Cells>
      <DataArray type="Int32" Name="connectivity" format="ascii">
0 1
1 2
2 3
3 4
4 5
5 6
6 7
7 8
8 9
9 10
10 11
11 12
12 13
13 14
14 15
15 16
16 17
17 18
18 19
19 20
20 21
21 22
22 23
23 24
24 25
25 26
26 27
27 28
28 29
29 30
30 31
31 32
32 33
33 34
34 35
0 35
0 34
1 34
1 33
2 33
2 32
3 32
3 31
4 31
4 30
5 30
5 7
30 7
30 8
29 8
29 9
28 9
28 10
27 10
27 11
26 11
26 12
25 12
25 13
25 14
24 14
24 15
23 15
23 16
22 16
22 17
21 17
21 18
20 18
      </DataArray>
      <DataArray type="Int32" Name="offsets" format="ascii">
2
4
6
8
10
12
14
16
18
20
22
24
26
28
30
32
34
36
38
40
42
44
46
48
50
52
54
56
58
60
62
64
66
68
70
72
74
76
78
80
82
84
86
88
90
92
94
96
98
100
102
104
106
108
110
112
114
116
118
120
122
124
126
128
130
132
134
136
138
      </DataArray>
      <DataArray type="UInt8" Name="types" format="ascii">
4
4
4
4
4
4
4
4
4
4
4
4
4
4
4
4
4
4
4
4
4
4
4
4
4
4
4
4
4
4
4
4
4
4
4
4
4
4
4
4
4
4
4
4
4
4
4
4
4
4
4
4
4
4
4
4
4
4
4
4
4
4
4
4
4
4
4
4
4
      </DataArray>
    </Cells>
    <PointData>
      <DataArray type="Float64" NumberOfComponents="3" Name="Displacement" format="ascii">
0 0 0
-0.00138429 -0.000271168 0
-0.00363127 -0.000334211 0
-0.00570463 -0.000181895 0
-0.0065208 0.000190184 0
-0.00486238 0.000784355 0
0.00224004 0.000759304 0
0.00223497 -0.0013373 0
0.00281983 -0.0308731 0
0.0016404 -0.056059 0
-0.00143477 -0.056729 0
-0.00465608 -0.0323509 0
-0.00598965 -0.0019383 0
-0.00591811 0.000472122 0
0.00111436 1.05532e-05 0
0.00313119 -0.000286428 0
0.00323013 -0.000414734 0
0.00229964 -0.000399815 0
0.00102131 -0.000259531 0
0 0 0
0 0 0
0.00104097 -5.20082e-05 0
0.00232114 -0.000229303 0
0.00325531 -0.000548982 0
0.0031608 -0.00103902 0
0.00114983 -0.00171892 0
0.00212712 -0.0320858 0
0.00125602 -0.0564425 0
-0.00159643 -0.0559888 0
-0.004277 -0.0310226 0
-0.00496131 -0.000714438 0
-0.00648607 -0.000142296 0
-0.00567027 0.000210406 0
-0.00359787 0.000349624 0
-0.00135131 0.000279572 0
0 0 0
      </DataArray> 
      <DataArray type="Float64" NumberOfComponents="3" Name="Velocity" format="ascii">
0 0 0
0.000199464 3.91223e-05 0
0.000477702 4.82127e-05 0
0.000679433 3.30764e-05 0
0.000689248 -1.03879e-06 0
0.000404869 -4.63587e-05 0
-0.000310699 -3.98056e-05 0
-0.000309917 0.000181827 0
-0.000352421 0.00338515 0
-0.000140058 0.00427178 0
0.000101051 0.00435927 0
0.000246359 0.00356685 0
0.000523852 0.000267326 0
0.000517452 -9.97705e-06 0
-0.000207794 2.89401e-05 0
-0.000435144 5.51121e-05 0
-0.000469795 6.95566e-05 0
-0.000338394 6.48794e-05 0
-0.00014634 4.01828e-05 0
0 0 0
0 0 0
-0.000148994 1.15082e-05 0
-0.000341271 4.0142e-05 0
-0.000472165 8.53964e-05 0
-0.000437892 0.000143297 0
-0.000210273 0.00022228 0
-0.00029043 0.00374006 0
-7.37702e-05 0.0043718 0
3.00049e-05 0.00424916 0
0.000242207 0.00355906 0
0.000412739 0.000122465 0
0.000687333 5.16467e-05 0
0.000676192 -1.59961e-06 0
0.00047361 -3.24915e-05 0
0.000194386 -3.39191e-05 0
0 0 0
      </DataArray> 
      <DataArray type="Float64" NumberOfComponents="3" Name="Acceleration" format="ascii">
0 0 0
-4.27514e-06 -2.31507e-06 0
-1.89655e-05 -1.28918e-06 0
-1.24822e-05 -9.15548e-07 0
-2.14199e-05 1.98377e-06 0
2.55207e-05 -3.18384e-06 0
4.56985e-05 -7.59284e-06 0
4.43245e-05 -8.87735e-06 0
-1.82524e-06 0.000147062 0
-2.71992e-05 0.000461682 0
4.61654e-05 0.000493985 0
8.08482e-05 0.000181397 0
-4.80878e-05 -4.54193e-05 0
-5.2632e-05 1.22638e-05 0
3.59182e-05 1.05923e-05 0
6.05508e-05 7.93733e-06 0
9.63272e-05 -1.38523e-06 0
6.10831e-05 -5.26553e-06 0
1.86828e-05 -3.86886e-06 0
0 0 0
0 0 0
1.89377e-05 5.07096e-06 0
6.20134e-05 4.9028e-06 0
9.67997e-05 -2.0665e-06 0
6.01006e-05 -7.52228e-06 0
3.36685e-05 -2.34429e-05 0
-9.56649e-06 -0.000252171 0
1.71226e-05 -0.000378806 0
-9.39358e-06 -0.000386579 0
-5.64447e-05 -0.000263629 0
2.26535e-05 -3.14642e-06 0
-2.12858e-05 3.94301e-07 0
-1.34246e-05 1.19108e-07 0
-1.89697e-05 1.15221e-06 0
-3.98964e-06 5.20591e-07 0
0 0 0
      </DataArray> 
    </PointData>
    <CellData>
    </CellData>
  </Piece>
  </UnstructuredGrid>
</VTKFile>
