<?xml version="1.0"?>
<VTKFile type="UnstructuredGrid">
  <UnstructuredGrid>
  <Piece NumberOfPoints="36"  NumberOfCells="69">
    <Points>
      <DataArray type="Float64" NumberOfComponents="3" format="ascii">
0 0 0
-0.000260431 0.999944 0
-0.000599143 1.99995 0
-0.0007073 3.00003 0
-0.000226692 4.0002 0
0.00134911 5.00046 0
0.00527257 6.00045 0
0.405272 5.99921 0
3.40558 5.98368 0
6.40503 5.969 0
9.40328 5.96883 0
12.4015 5.98334 0
15.401 5.999 0
15.801 6.00013 0
15.8046 4.99981 0
15.8049 3.99962 0
15.804 2.99955 0
15.8025 1.99959 0
15.801 0.999739 0
15.8 0 0
15.4 0 0
15.401 1.00005 0
15.4025 1.99999 0
15.404 2.99982 0
15.4049 3.99952 0
15.4046 4.99911 0
12.4051 4.9834 0
9.40482 4.96898 0
6.40322 4.96902 0
3.40165 4.98352 0
0.401306 4.99947 0
0.399787 3.99973 0
0.399305 2.9999 0
0.399412 1.99999 0
0.399749 1.00003 0
0.4 0 0
      </DataArray>
    </Points>
    <Cells>
      <DataArray type="Int32" Name="connectivity" format="ascii">
0 1
1 2
2 3
3 4
4 5
5 6
6 7
7 8
8 9
9 10
10 11
11 12
12 13
13 14
14 15
15 16
16 17
17 18
18 19
19 20
20 21
21 22
22 23
23 24
24 25
25 26
26 27
27 28
28 29
29 30
30 31
31 32
32 33
33 34
34 35
0 35
0 34
1 34
1 33
2 33
2 32
3 32
3 31
4 31
4 30
5 30
5 7
30 7
30 8
29 8
29 9
28 9
28 10
27 10
27 11
26 11
26 12
25 12
25 13
25 14
24 14
24 15
23 15
23 16
22 16
22 17
21 17
21 18
20 18
      </DataArray>
      <DataArray type="Int32" Name="offsets" format="ascii">
2
4
6
8
10
12
14
16
18
20
22
24
26
28
30
32
34
36
38
40
42
44
46
48
50
52
54
56
58
60
62
64
66
68
70
72
74
76
78
80
82
84
86
88
90
92
94
96
98
100
102
104
106
108
110
112
114
116
118
120
122
124
126
128
130
132
134
136
138
      </DataArray>
      <DataArray type="UInt8" Name="types" format="ascii">
4
4
4
4
4
4
4
4
4
4
4
4
4
4
4
4
4
4
4
4
4
4
4
4
4
4
4
4
4
4
4
4
4
4
4
4
4
4
4
4
4
4
4
4
4
4
4
4
4
4
4
4
4
4
4
4
4
4
4
4
4
4
4
4
4
4
4
4
4
      </DataArray>
    </Cells>
    <PointData>
      <DataArray type="Float64" NumberOfComponents="3" Name="Displacement" format="ascii">
0 0 0
-0.000260431 -5.61518e-05 0
-0.000599143 -4.78785e-05 0
-0.0007073 3.40478e-05 0
-0.000226692 0.000201458 0
0.00134911 0.000458665 0
0.00527257 0.000450295 0
0.00527153 -0.000793177 0
0.0055757 -0.0163166 0
0.00503138 -0.0309972 0
0.00327642 -0.0311683 0
0.00150223 -0.0166639 0
0.000966846 -0.00100293 0
0.0010172 0.000125397 0
0.00455791 -0.000186501 0
0.0048729 -0.000380001 0
0.00398832 -0.00045314 0
0.00251269 -0.000412574 0
0.000994215 -0.000260958 0
0 0 0
0 0 0
0.00101201 5.05405e-05 0
0.00253078 -1.00621e-05 0
0.00400708 -0.000183326 0
0.00489263 -0.000476297 0
0.00457869 -0.000894641 0
0.00514643 -0.0165961 0
0.00481638 -0.031017 0
0.00322366 -0.0309822 0
0.00164772 -0.0164782 0
0.00130584 -0.00052608 0
-0.00021302 -0.000270294 0
-0.000694688 -0.000101234 0
-0.000588149 -5.38728e-06 0
-0.000250592 2.66296e-05 0
0 0 0
      </DataArray> 
      <DataArray type="Float64" NumberOfComponents="3" Name="Velocity" format="ascii">
0 0 0
0.000207287 2.96494e-05 0
0.000491142 2.66835e-05 0
0.000654062 3.23947e-06 0
0.000619812 -3.87987e-05 0
0.000222286 -7.54363e-05 0
-0.000443285 -7.38036e-05 0
-0.000441802 0.000149902 0
-0.000438751 0.00325688 0
-0.000186234 0.00391433 0
-4.12923e-05 0.00394743 0
4.93548e-05 0.00334386 0
0.000322934 0.00027087 0
0.00032041 1.02064e-05 0
-0.000338244 4.44403e-05 0
-0.000524732 6.4388e-05 0
-0.000494474 6.95493e-05 0
-0.000334958 5.93376e-05 0
-0.000161014 3.91461e-05 0
0 0 0
0 0 0
-0.00016381 7.25297e-06 0
-0.000337553 3.04444e-05 0
-0.000497445 7.64038e-05 0
-0.000527885 0.000142937 0
-0.000341722 0.000227714 0
-0.000424812 0.00327659 0
-0.000227804 0.00370034 0
-0.000111552 0.00368028 0
5.91816e-05 0.00324107 0
0.000231314 0.000114414 0
0.000618648 4.16722e-05 0
0.000650758 -1.05127e-05 0
0.000486813 -4.08732e-05 0
0.000201924 -3.77202e-05 0
0 0 0
      </DataArray> 
      <DataArray type="Float64" NumberOfComponents="3" Name="Acceleration" format="ascii">
0 0 0
-1.85636e-05 3.42705e-06 0
-3.14568e-05 5.63249e-06 0
-4.2257e-05 7.38965e-06 0
-1.96735e-05 8.40293e-06 0
-4.60505e-06 2.2969e-05 0
9.61049e-05 2.85434e-05 0
9.10354e-05 -1.91875e-05 0
-8.49564e-05 -0.00046843 0
-6.33295e-05 -0.000314028 0
4.53464e-05 -0.000296613 0
-8.3039e-05 -0.00048323 0
-5.86604e-05 5.53165e-06 0
-6.22945e-05 -8.58492e-07 0
-1.0038e-05 -1.86735e-06 0
1.74257e-05 5.0417e-08 0
2.50297e-05 1.6371e-06 0
7.41678e-06 3.30321e-06 0
2.61917e-06 1.15262e-06 0
0 0 0
0 0 0
2.70941e-06 4.34879e-06 0
7.62054e-06 4.22744e-06 0
2.54184e-05 -3.66103e-06 0
1.75394e-05 -1.18767e-05 0
-7.87353e-06 -1.42094e-05 0
2.85979e-05 0.000233845 0
0.000110624 -2.70695e-05 0
-5.16531e-05 -6.87641e-05 0
3.34305e-05 0.000205445 0
-9.55131e-06 -2.29939e-05 0
-1.82353e-05 -6.99635e-06 0
-4.09125e-05 3.88568e-06 0
-3.13311e-05 6.52571e-06 0
-1.82995e-05 4.60058e-06 0
0 0 0
      </DataArray> 
    </PointData>
    <CellData>
    </CellData>
  </Piece>
  </UnstructuredGrid>
</VTKFile>
