<?xml version="1.0"?>
<VTKFile type="UnstructuredGrid">
  <UnstructuredGrid>
  <Piece NumberOfPoints="36"  NumberOfCells="69">
    <Points>
      <DataArray type="Float64" NumberOfComponents="3" format="ascii">
0 0 0
-0.000508418 0.999963 0
-0.000921921 2.00002 0
-0.000755192 3.00016 0
0.000381536 4.00035 0
0.00279796 5.0006 0
0.00739423 6.00059 0
0.407391 5.99907 0
3.40765 5.98146 0
6.40706 5.96451 0
9.40507 5.96492 0
12.4031 5.98199 0
15.4026 5.99885 0
15.8027 6.00014 0
15.8067 4.9998 0
15.8075 3.99953 0
15.8065 2.99936 0
15.8044 1.99936 0
15.8018 0.999565 0
15.8 0 0
15.4 0 0
15.4018 1.00012 0
15.4044 2.00002 0
15.4066 2.99976 0
15.4075 3.9994 0
15.4068 4.99895 0
12.4073 4.98214 0
9.407 4.96517 0
6.40512 4.96459 0
3.40322 4.98134 0
0.402756 4.99933 0
0.40039 3.99962 0
0.399256 2.99985 0
0.399092 2 0
0.399508 1.00006 0
0.4 0 0
      </DataArray>
    </Points>
    <Cells>
      <DataArray type="Int32" Name="connectivity" format="ascii">
0 1
1 2
2 3
3 4
4 5
5 6
6 7
7 8
8 9
9 10
10 11
11 12
12 13
13 14
14 15
15 16
16 17
17 18
18 19
19 20
20 21
21 22
22 23
23 24
24 25
25 26
26 27
27 28
28 29
29 30
30 31
31 32
32 33
33 34
34 35
0 35
0 34
1 34
1 33
2 33
2 32
3 32
3 31
4 31
4 30
5 30
5 7
30 7
30 8
29 8
29 9
28 9
28 10
27 10
27 11
26 11
26 12
25 12
25 13
25 14
24 14
24 15
23 15
23 16
22 16
22 17
21 17
21 18
20 18
      </DataArray>
      <DataArray type="Int32" Name="offsets" format="ascii">
2
4
6
8
10
12
14
16
18
20
22
24
26
28
30
32
34
36
38
40
42
44
46
48
50
52
54
56
58
60
62
64
66
68
70
72
74
76
78
80
82
84
86
88
90
92
94
96
98
100
102
104
106
108
110
112
114
116
118
120
122
124
126
128
130
132
134
136
138
      </DataArray>
      <DataArray type="UInt8" Name="types" format="ascii">
4
4
4
4
4
4
4
4
4
4
4
4
4
4
4
4
4
4
4
4
4
4
4
4
4
4
4
4
4
4
4
4
4
4
4
4
4
4
4
4
4
4
4
4
4
4
4
4
4
4
4
4
4
4
4
4
4
4
4
4
4
4
4
4
4
4
4
4
4
      </DataArray>
    </Cells>
    <PointData>
      <DataArray type="Float64" NumberOfComponents="3" Name="Displacement" format="ascii">
0 0 0
-0.000508418 -3.74586e-05 0
-0.000921921 2.08193e-05 0
-0.000755192 0.000157146 0
0.000381536 0.000353011 0
0.00279796 0.000602208 0
0.00739423 0.000591824 0
0.00739146 -0.000932554 0
0.00764672 -0.018545 0
0.00705812 -0.035491 0
0.00506818 -0.0350842 0
0.00309876 -0.018008 0
0.00264314 -0.00115015 0
0.00269628 0.000135419 0
0.00673679 -0.000201882 0
0.0074899 -0.000472964 0
0.0065389 -0.000636614 0
0.00437746 -0.000640916 0
0.00180258 -0.000434985 0
0 0 0
0 0 0
0.00183826 0.000116149 0
0.00440757 1.92851e-05 0
0.00656072 -0.000237808 0
0.00750499 -0.000603902 0
0.00675008 -0.00104608 0
0.00729632 -0.0178581 0
0.0069952 -0.0348292 0
0.00511747 -0.0354073 0
0.003216 -0.0186604 0
0.00275622 -0.000670188 0
0.000390087 -0.00037761 0
-0.000744279 -0.000147988 0
-0.00090802 2.62352e-06 0
-0.000491833 5.72674e-05 0
0 0 0
      </DataArray> 
      <DataArray type="Float64" NumberOfComponents="3" Name="Velocity" format="ascii">
0 0 0
0.000314523 3.71022e-05 0
0.00072865 3.31148e-05 0
0.00102561 -8.59584e-07 0
0.00102641 -4.34004e-05 0
0.000726726 -8.62106e-05 0
8.79336e-05 -8.39313e-05 0
8.7354e-05 0.000119997 0
5.91169e-06 0.00308083 0
0.000188382 0.00418215 0
0.000355016 0.00415064 0
0.000559663 0.00317367 0
0.000668322 0.000265007 0
0.000664563 -7.76816e-06 0
-2.06911e-05 -1.15901e-06 0
-0.000669761 4.08389e-05 0
-0.000916676 8.36676e-05 0
-0.000799581 0.000107771 0
-0.000381616 8.20441e-05 0
0 0 0
0 0 0
-0.00039039 5.37946e-06 0
-0.000805172 6.25658e-05 0
-0.000918015 0.00013848 0
-0.000666966 0.000211312 0
-1.62731e-05 0.000245279 0
-1.9142e-05 0.00292085 0
0.00017406 0.00403541 0
0.000389495 0.00407952 0
0.00052134 0.00286636 0
0.000731871 7.632e-05 0
0.00102586 9.95432e-06 0
0.00102247 -4.73779e-05 0
0.000723003 -7.50265e-05 0
0.000307397 -6.19681e-05 0
0 0 0
      </DataArray> 
      <DataArray type="Float64" NumberOfComponents="3" Name="Acceleration" format="ascii">
0 0 0
5.47355e-05 -1.54963e-06 0
6.0455e-05 -3.52173e-06 0
5.9089e-05 -8.57833e-06 0
1.54144e-05 -6.18156e-06 0
3.32059e-05 -8.26845e-06 0
1.43925e-05 -7.73076e-06 0
1.48952e-05 -3.42731e-06 0
2.94265e-05 -0.000173801 0
4.37652e-05 0.000251821 0
3.47955e-05 0.000268681 0
1.56535e-05 -0.000152561 0
-6.92573e-06 2.87676e-05 0
-6.72872e-07 -1.48116e-05 0
-1.00308e-05 -3.33843e-05 0
-0.000114611 -3.90631e-05 0
-0.000170827 -3.14539e-05 0
-0.00017298 -1.00368e-05 0
-6.98806e-05 2.98159e-06 0
0 0 0
0 0 0
-7.315e-05 -2.82534e-05 0
-0.000174517 -2.98822e-05 0
-0.000170665 -1.90774e-05 0
-0.000113937 -7.61471e-08 0
-1.14929e-05 1.27678e-05 0
-4.45609e-05 -0.000292128 0
-5.48844e-05 -0.000488114 0
-4.15089e-05 -0.00042864 0
-6.14934e-05 -0.000222427 0
2.82799e-05 -8.76963e-06 0
1.51886e-05 -5.92015e-07 0
6.02085e-05 -1.92429e-06 0
5.99483e-05 -3.69779e-06 0
5.37603e-05 -7.20669e-06 0
0 0 0
      </DataArray> 
    </PointData>
    <CellData>
    </CellData>
  </Piece>
  </UnstructuredGrid>
</VTKFile>
