<?xml version="1.0"?>
<VTKFile type="UnstructuredGrid">
  <UnstructuredGrid>
  <Piece NumberOfPoints="36"  NumberOfCells="69">
    <Points>
      <DataArray type="Float64" NumberOfComponents="3" format="ascii">
0 0 0
0.000929788 1.00008 0
0.00209128 2.00006 0
0.00288439 2.99998 0
0.00298591 3.99992 0
0.00261065 4.99993 0
0.00252564 5.99993 0
0.402525 5.99998 0
3.40253 6.00103 0
6.40279 5.99709 0
9.40242 5.99703 0
12.402 6.00118 0
15.4023 6.00029 0
15.8023 5.99997 0
15.8018 4.99987 0
15.8002 3.99991 0
15.7991 3.00002 0
15.7988 2.00011 0
15.7993 1.00012 0
15.8 0 0
15.4 0 0
15.3993 1.00003 0
15.3988 2.00015 0
15.3991 3.00028 0
15.4002 4.00034 0
15.4019 5.00027 0
12.4021 5.0012 0
9.40261 4.99723 0
6.40241 4.99723 0
3.40222 5.001 0
0.402606 4.99999 0
0.402993 3.99991 0
0.402882 2.9998 0
0.402079 1.99975 0
0.40091 0.999807 0
0.4 0 0
      </DataArray>
    </Points>
    <Cells>
      <DataArray type="Int32" Name="connectivity" format="ascii">
0 1
1 2
2 3
3 4
4 5
5 6
6 7
7 8
8 9
9 10
10 11
11 12
12 13
13 14
14 15
15 16
16 17
17 18
18 19
19 20
20 21
21 22
22 23
23 24
24 25
25 26
26 27
27 28
28 29
29 30
30 31
31 32
32 33
33 34
34 35
0 35
0 34
1 34
1 33
2 33
2 32
3 32
3 31
4 31
4 30
5 30
5 7
30 7
30 8
29 8
29 9
28 9
28 10
27 10
27 11
26 11
26 12
25 12
25 13
25 14
24 14
24 15
23 15
23 16
22 16
22 17
21 17
21 18
20 18
      </DataArray>
      <DataArray type="Int32" Name="offsets" format="ascii">
2
4
6
8
10
12
14
16
18
20
22
24
26
28
30
32
34
36
38
40
42
44
46
48
50
52
54
56
58
60
62
64
66
68
70
72
74
76
78
80
82
84
86
88
90
92
94
96
98
100
102
104
106
108
110
112
114
116
118
120
122
124
126
128
130
132
134
136
138
      </DataArray>
      <DataArray type="UInt8" Name="types" format="ascii">
4
4
4
4
4
4
4
4
4
4
4
4
4
4
4
4
4
4
4
4
4
4
4
4
4
4
4
4
4
4
4
4
4
4
4
4
4
4
4
4
4
4
4
4
4
4
4
4
4
4
4
4
4
4
4
4
4
4
4
4
4
4
4
4
4
4
4
4
4
      </DataArray>
    </Cells>
    <PointData>
      <DataArray type="Float64" NumberOfComponents="3" Name="Displacement" format="ascii">
0 0 0
0.000929788 8.06789e-05 0
0.00209128 5.53141e-05 0
0.00288439 -2.22252e-05 0
0.00298591 -7.81301e-05 0
0.00261065 -6.76736e-05 0
0.00252564 -6.79762e-05 0
0.00252549 -1.90511e-05 0
0.00253439 0.00102623 0
0.00278575 -0.00291332 0
0.00241737 -0.00297283 0
0.00203446 0.00118035 0
0.00230195 0.000293802 0
0.00231802 -3.45228e-05 0
0.00182797 -0.000129151 0
0.000229276 -9.0306e-05 0
-0.000907806 1.65715e-05 0
-0.00119494 0.000112252 0
-0.000700227 0.000120398 0
0 0 0
0 0 0
-0.000717435 3.02072e-05 0
-0.00120279 0.000148701 0
-0.000903205 0.000279325 0
0.00024537 0.000342032 0
0.00185033 0.000271946 0
0.00214816 0.00120381 0
0.00260882 -0.00276535 0
0.00241381 -0.00277044 0
0.00221621 0.00100087 0
0.0026065 -8.64409e-06 0
0.00299283 -9.16116e-05 0
0.00288183 -0.000196115 0
0.00207854 -0.000247833 0
0.000910242 -0.000192969 0
0 0 0
      </DataArray> 
      <DataArray type="Float64" NumberOfComponents="3" Name="Velocity" format="ascii">
0 0 0
0.000248847 1.38724e-05 0
0.000527128 -4.76529e-08 0
0.000687527 -2.91492e-05 0
0.000618025 -4.92097e-05 0
0.000402633 -4.82196e-05 0
0.000261668 -4.78329e-05 0
0.000260597 8.14278e-06 0
0.00022182 0.000667019 0
0.000230889 0.000840082 0
0.000237261 0.000809317 0
0.000257011 0.000680308 0
0.000316721 0.00010899 0
0.000318597 -2.77591e-05 0
5.87003e-06 -3.34582e-05 0
-0.00044526 -7.17616e-06 0
-0.000733013 4.10201e-05 0
-0.000657487 7.36751e-05 0
-0.000318558 6.2829e-05 0
0 0 0
0 0 0
-0.00032606 -5.83071e-06 0
-0.000662006 3.03961e-05 0
-0.000732298 8.03592e-05 0
-0.000440873 0.000107251 0
1.53108e-05 0.000103909 0
0.000152277 0.000706527 0
0.000238281 0.000999391 0
0.00028799 0.00102094 0
0.000375074 0.000677969 0
0.00040392 1.00677e-05 0
0.000620361 -1.29384e-05 0
0.000686987 -4.49852e-05 0
0.000523583 -6.15972e-05 0
0.00024351 -5.00373e-05 0
0 0 0
      </DataArray> 
      <DataArray type="Float64" NumberOfComponents="3" Name="Acceleration" format="ascii">
0 0 0
-0.000111177 -6.81534e-06 0
-0.000184825 -6.58622e-06 0
-0.000251346 8.83423e-06 0
-0.000155316 1.06945e-05 0
-9.84254e-05 1.43364e-05 0
-1.50375e-05 1.28135e-05 0
-1.40813e-05 -1.37349e-05 0
2.31511e-05 -0.000303796 0
6.82157e-06 8.09615e-05 0
8.42036e-05 8.77296e-05 0
2.53791e-05 -0.000278746 0
-4.91813e-05 -6.1928e-05 0
-5.65053e-05 1.65379e-05 0
5.23239e-05 2.91057e-05 0
0.000219445 2.31257e-05 0
0.000270999 1.16318e-05 0
0.000261245 -8.21998e-06 0
0.000138012 -1.83791e-05 0
0 0 0
0 0 0
0.000141628 1.81598e-05 0
0.000262627 1.36383e-05 0
0.000271615 -8.4115e-07 0
0.000217993 -2.64985e-05 0
5.2987e-05 -4.29565e-05 0
6.44422e-05 -0.000220712 0
-3.56984e-05 -0.000807552 0
-0.000117431 -0.000878317 0
-6.99444e-05 -0.000258915 0
-9.71904e-05 -1.10025e-05 0
-0.000155438 -1.14117e-05 0
-0.00025248 6.17803e-06 0
-0.000183081 1.40719e-05 0
-0.000108962 1.71729e-05 0
0 0 0
      </DataArray> 
    </PointData>
    <CellData>
    </CellData>
  </Piece>
  </UnstructuredGrid>
</VTKFile>
