<?xml version="1.0"?>
<VTKFile type="UnstructuredGrid">
  <UnstructuredGrid>
  <Piece NumberOfPoints="36"  NumberOfCells="69">
    <Points>
      <DataArray type="Float64" NumberOfComponents="3" format="ascii">
0 0 0
-0.000608144 0.999912 0
-0.00125899 1.99994 0
-0.0013093 3.00008 0
-0.000279425 4.00029 0
0.00227524 5.00056 0
0.00723116 6.00055 0
0.407228 5.99891 0
3.40748 5.97875 0
6.40651 5.96486 0
9.40469 5.96531 0
12.4029 5.97927 0
15.4021 5.99861 0
15.8021 6.00005 0
15.8065 4.99971 0
15.8073 3.99945 0
15.8064 2.99931 0
15.8042 1.99934 0
15.8017 0.999565 0
15.8 0 0
15.4 0 0
15.4018 1.00008 0
15.4043 1.99995 0
15.4064 2.99967 0
15.4073 3.99926 0
15.4065 4.99876 0
12.4071 4.97946 0
9.40645 4.96553 0
6.40476 4.96497 0
3.40304 4.9787 0
0.402229 4.9992 0
0.399731 3.99956 0
0.398705 2.99984 0
0.398758 2.00001 0
0.399412 1.00007 0
0.4 0 0
      </DataArray>
    </Points>
    <Cells>
      <DataArray type="Int32" Name="connectivity" format="ascii">
0 1
1 2
2 3
3 4
4 5
5 6
6 7
7 8
8 9
9 10
10 11
11 12
12 13
13 14
14 15
15 16
16 17
17 18
18 19
19 20
20 21
21 22
22 23
23 24
24 25
25 26
26 27
27 28
28 29
29 30
30 31
31 32
32 33
33 34
34 35
0 35
0 34
1 34
1 33
2 33
2 32
3 32
3 31
4 31
4 30
5 30
5 7
30 7
30 8
29 8
29 9
28 9
28 10
27 10
27 11
26 11
26 12
25 12
25 13
25 14
24 14
24 15
23 15
23 16
22 16
22 17
21 17
21 18
20 18
      </DataArray>
      <DataArray type="Int32" Name="offsets" format="ascii">
2
4
6
8
10
12
14
16
18
20
22
24
26
28
30
32
34
36
38
40
42
44
46
48
50
52
54
56
58
60
62
64
66
68
70
72
74
76
78
80
82
84
86
88
90
92
94
96
98
100
102
104
106
108
110
112
114
116
118
120
122
124
126
128
130
132
134
136
138
      </DataArray>
      <DataArray type="UInt8" Name="types" format="ascii">
4
4
4
4
4
4
4
4
4
4
4
4
4
4
4
4
4
4
4
4
4
4
4
4
4
4
4
4
4
4
4
4
4
4
4
4
4
4
4
4
4
4
4
4
4
4
4
4
4
4
4
4
4
4
4
4
4
4
4
4
4
4
4
4
4
4
4
4
4
      </DataArray>
    </Cells>
    <PointData>
      <DataArray type="Float64" NumberOfComponents="3" Name="Displacement" format="ascii">
0 0 0
-0.000608144 -8.78351e-05 0
-0.00125899 -5.50122e-05 0
-0.0013093 7.64637e-05 0
-0.000279425 0.00028767 0
0.00227524 0.000560708 0
0.00723116 0.000548838 0
0.00722756 -0.00108981 0
0.00748172 -0.0212535 0
0.00651416 -0.0351351 0
0.0046919 -0.0346874 0
0.00292627 -0.0207312 0
0.00208927 -0.00138598 0
0.00214368 5.39486e-05 0
0.00648503 -0.000289096 0
0.0073121 -0.000550305 0
0.00635492 -0.000687061 0
0.00422139 -0.000659562 0
0.00174364 -0.000434914 0
0 0 0
0 0 0
0.00177667 7.61172e-05 0
0.00425063 -4.65453e-05 0
0.0063782 -0.000332051 0
0.00732962 -0.00074007 0
0.00650225 -0.00123696 0
0.00711766 -0.0205379 0
0.00644502 -0.0344748 0
0.00475956 -0.0350294 0
0.00303779 -0.0213031 0
0.00222907 -0.000800447 0
-0.00026864 -0.000440809 0
-0.00129516 -0.000163571 0
-0.00124151 1.47956e-05 0
-0.000588123 7.25925e-05 0
0 0 0
      </DataArray> 
      <DataArray type="Float64" NumberOfComponents="3" Name="Velocity" format="ascii">
0 0 0
-0.000191932 -2.03851e-05 0
-0.00044169 -1.48195e-05 0
-0.000627735 1.5783e-05 0
-0.00057366 5.19689e-05 0
-0.00030459 9.13438e-05 0
0.000289714 8.85087e-05 0
0.000290027 -9.98342e-05 0
0.000359397 -0.00251658 0
0.000227302 -0.00455528 0
4.77738e-05 -0.00454963 0
-0.000232676 -0.0025953 0
-0.000313662 -0.000205296 0
-0.000310249 2.48608e-05 0
0.000327501 6.27426e-07 0
0.000736441 -3.72369e-05 0
0.000853937 -7.33202e-05 0
0.000684458 -9.00815e-05 0
0.000327336 -6.95591e-05 0
0 0 0
0 0 0
0.000334519 3.59209e-06 0
0.000689177 -3.20898e-05 0
0.000855732 -8.82566e-05 0
0.00073589 -0.000146385 0
0.000324412 -0.000191076 0
0.000326352 -0.00240347 0
0.00026423 -0.00451687 0
-7.10322e-06 -0.00456217 0
-0.00023728 -0.00237764 0
-0.000310394 -5.90441e-05 0
-0.000573205 -1.2679e-05 0
-0.000625335 2.84522e-05 0
-0.000437731 4.56386e-05 0
-0.000187515 3.76381e-05 0
0 0 0
      </DataArray> 
      <DataArray type="Float64" NumberOfComponents="3" Name="Acceleration" format="ascii">
0 0 0
3.3676e-05 3.6907e-06 0
7.52312e-05 3.42226e-07 0
6.16564e-05 2.44519e-07 0
5.21036e-05 -3.2701e-06 0
2.08097e-05 -1.22282e-05 0
-2.57961e-05 -1.75115e-05 0
-2.42192e-05 1.20405e-05 0
3.40236e-05 0.000479523 0
0.000109394 4.18495e-05 0
9.49128e-05 3.265e-05 0
4.00313e-05 0.000472987 0
-2.93566e-05 3.21022e-05 0
-2.37381e-05 2.97677e-05 0
4.54962e-05 2.14467e-06 0
-0.000114879 -3.78589e-06 0
-0.000130428 -7.95296e-06 0
-0.000114654 -2.72773e-06 0
-5.16222e-05 2.78228e-06 0
0 0 0
0 0 0
-5.36319e-05 -1.46721e-05 0
-0.000115669 -9.60628e-06 0
-0.000130943 8.74462e-06 0
-0.00011366 3.59696e-05 0
3.99448e-05 3.35976e-05 0
-8.83544e-05 -0.00029159 0
-9.03589e-05 -0.000617278 0
-5.64566e-05 -0.000572158 0
-0.000126484 -0.00026063 0
2.01187e-05 2.13136e-05 0
5.1402e-05 1.01381e-05 0
6.09885e-05 3.4115e-06 0
7.51654e-05 -4.58592e-06 0
3.25616e-05 -5.36375e-06 0
0 0 0
      </DataArray> 
    </PointData>
    <CellData>
    </CellData>
  </Piece>
  </UnstructuredGrid>
</VTKFile>
