<?xml version="1.0"?>
<VTKFile type="UnstructuredGrid">
  <UnstructuredGrid>
  <Piece NumberOfPoints="36"  NumberOfCells="69">
    <Points>
      <DataArray type="Float64" NumberOfComponents="3" format="ascii">
0 0 0
-0.00245568 0.999489 0
-0.00640811 1.99937 0
-0.00985599 2.99967 0
-0.0107609 4.00038 0
-0.00677038 5.0015 0
0.00750837 6.00139 0
0.407484 5.99709 0
3.40821 5.93734 0
6.40535 5.89155 0
9.39954 5.89065 0
12.3934 5.93515 0
15.3901 5.99595 0
15.7902 6.00074 0
15.8042 4.99986 0
15.8079 3.99926 0
15.8077 2.99901 0
15.8053 1.99907 0
15.8023 0.999403 0
15.8 0 0
15.4 0 0
15.4023 0.999917 0
15.4054 1.99956 0
15.4078 2.99889 0
15.408 3.99787 0
15.4042 4.99647 0
12.4065 4.93557 0
9.40467 4.89096 0
6.39934 4.89152 0
3.3944 4.93699 0
0.393031 4.99833 0
0.389303 3.99948 0
0.390209 3.00021 0
0.393655 2.00054 0
0.397606 1.00047 0
0.4 0 0
      </DataArray>
    </Points>
    <Cells>
      <DataArray type="Int32" Name="connectivity" format="ascii">
0 1
1 2
2 3
3 4
4 5
5 6
6 7
7 8
8 9
9 10
10 11
11 12
12 13
13 14
14 15
15 16
16 17
17 18
18 19
19 20
20 21
21 22
22 23
23 24
24 25
25 26
26 27
27 28
28 29
29 30
30 31
31 32
32 33
33 34
34 35
0 35
0 34
1 34
1 33
2 33
2 32
3 32
3 31
4 31
4 30
5 30
5 7
30 7
30 8
29 8
29 9
28 9
28 10
27 10
27 11
26 11
26 12
25 12
25 13
25 14
24 14
24 15
23 15
23 16
22 16
22 17
21 17
21 18
20 18
      </DataArray>
      <DataArray type="Int32" Name="offsets" format="ascii">
2
4
6
8
10
12
14
16
18
20
22
24
26
28
30
32
34
36
38
40
42
44
46
48
50
52
54
56
58
60
62
64
66
68
70
72
74
76
78
80
82
84
86
88
90
92
94
96
98
100
102
104
106
108
110
112
114
116
118
120
122
124
126
128
130
132
134
136
138
      </DataArray>
      <DataArray type="UInt8" Name="types" format="ascii">
4
4
4
4
4
4
4
4
4
4
4
4
4
4
4
4
4
4
4
4
4
4
4
4
4
4
4
4
4
4
4
4
4
4
4
4
4
4
4
4
4
4
4
4
4
4
4
4
4
4
4
4
4
4
4
4
4
4
4
4
4
4
4
4
4
4
4
4
4
      </DataArray>
    </Cells>
    <PointData>
      <DataArray type="Float64" NumberOfComponents="3" Name="Displacement" format="ascii">
0 0 0
-0.00245568 -0.000510883 0
-0.00640811 -0.000626695 0
-0.00985599 -0.00033385 0
-0.0107609 0.000378392 0
-0.00677038 0.0014959 0
0.00750837 0.00139382 0
0.00748435 -0.00290672 0
0.00821055 -0.0626627 0
0.00535392 -0.108447 0
-0.000460996 -0.109349 0
-0.00664964 -0.0648462 0
-0.00991131 -0.00404937 0
-0.00978543 0.000743405 0
0.00415123 -0.000139447 0
0.00790423 -0.00073611 0
0.00770315 -0.000991512 0
0.00532329 -0.000933377 0
0.00230153 -0.000596609 0
0 0 0
0 0 0
0.00234495 -8.29318e-05 0
0.0053706 -0.000443509 0
0.0077563 -0.00111239 0
0.00796606 -0.00212791 0
0.00423021 -0.00353053 0
0.0064698 -0.0644261 0
0.00466726 -0.109035 0
-0.000656146 -0.108484 0
-0.00560498 -0.0630099 0
-0.00696874 -0.00166509 0
-0.0106974 -0.000515346 0
-0.00979118 0.000212208 0
-0.00634534 0.000537973 0
-0.00239386 0.000466429 0
0 0 0
      </DataArray> 
      <DataArray type="Float64" NumberOfComponents="3" Name="Velocity" format="ascii">
0 0 0
1.10515e-05 9.57567e-06 0
3.5168e-05 1.28399e-05 0
2.50745e-05 1.29866e-05 0
-2.50632e-05 1.01327e-05 0
-0.000156365 1.38854e-05 0
-0.000263048 1.67257e-05 0
-0.000263118 5.72221e-05 0
-0.000267957 0.000771699 0
-0.000185775 -0.000144977 0
-0.000191683 -0.000199493 0
-0.000255981 0.00068829 0
-0.000158004 6.5083e-05 0
-0.000161006 3.7185e-05 0
-0.000231939 4.47561e-05 0
-0.000204679 4.89786e-05 0
-0.000116932 4.14931e-05 0
-4.99875e-05 2.74674e-05 0
-1.37768e-05 1.18096e-05 0
0 0 0
0 0 0
-1.32537e-05 1.08875e-05 0
-5.00903e-05 1.80353e-05 0
-0.000117757 2.47542e-05 0
-0.0002056 3.77824e-05 0
-0.000231994 5.324e-05 0
-0.000253139 0.000816945 0
-0.000138791 5.8333e-05 0
-0.000206283 8.27354e-05 0
-0.000228729 0.000886857 0
-0.000155364 5.41536e-05 0
-2.44859e-05 3.58138e-05 0
2.45919e-05 2.06514e-05 0
3.44695e-05 8.1087e-06 0
1.02002e-05 1.66796e-06 0
0 0 0
      </DataArray> 
      <DataArray type="Float64" NumberOfComponents="3" Name="Acceleration" format="ascii">
0 0 0
-2.46528e-05 2.47877e-06 0
-2.79459e-05 3.74173e-06 0
-3.50361e-05 7.21487e-06 0
-1.39797e-05 5.99236e-06 0
-1.94033e-05 3.99882e-06 0
-9.65399e-05 7.04248e-06 0
-9.25077e-05 2.35257e-05 0
2.654e-05 -0.000123333 0
-3.82616e-05 0.000480065 0
6.42838e-05 0.000478353 0
-2.35136e-05 -0.000162886 0
0.000131289 -1.04202e-05 0
0.00013238 -2.87161e-05 0
8.11881e-06 -4.51882e-07 0
0.000115368 8.69851e-06 0
0.000139088 9.62376e-06 0
0.000118302 2.31833e-06 0
4.86917e-05 -3.2366e-06 0
0 0 0
0 0 0
5.02479e-05 1.66023e-05 0
0.000119346 1.52569e-05 0
0.00013942 1.89491e-06 0
0.000112757 -1.53762e-05 0
5.73051e-06 -7.98502e-06 0
-1.74508e-05 0.000513565 0
1.86331e-06 0.000491311 0
-9.2876e-05 0.000424594 0
0.000111314 0.000492567 0
-1.41129e-05 8.78065e-06 0
-1.33012e-05 3.27683e-06 0
-3.58836e-05 4.34582e-06 0
-2.75431e-05 4.10645e-06 0
-2.42535e-05 4.30148e-06 0
0 0 0
      </DataArray> 
    </PointData>
    <CellData>
    </CellData>
  </Piece>
  </UnstructuredGrid>
</VTKFile>
