<?xml version="1.0"?>
<VTKFile type="UnstructuredGrid">
  <UnstructuredGrid>
  <Piece NumberOfPoints="36"  NumberOfCells="69">
    <Points>
      <DataArray type="Float64" NumberOfComponents="3" format="ascii">
0 0 0
0.000410392 1.00002 0
0.000831345 1.99999 0
0.000979259 2.99995 0
0.000730256 3.99992 0
0.000273197 4.99995 0
0.000202327 5.99995 0
0.400203 6.00002 0
3.40026 6.00041 0
6.40043 5.99772 0
9.40015 5.99798 0
12.3999 6.00097 0
15.4001 6.00021 0
15.8001 6.00004 0
15.7998 5.00001 0
15.7991 4.00004 0
15.7987 3.0001 0
15.7989 2.00014 0
15.7995 1.00011 0
15.8 0 0
15.4 0 0
15.3994 1 0
15.3989 2.00007 0
15.3987 3.00015 0
15.3991 4.00021 0
15.3999 5.00019 0
12.4 5.00101 0
9.40031 4.99818 0
6.40019 4.99787 0
3.40004 5.00041 0
0.400267 5.00005 0
0.400736 4.00001 0
0.40098 2.99995 0
0.400826 1.99991 0
0.400401 0.999923 0
0.4 0 0
      </DataArray>
    </Points>
    <Cells>
      <DataArray type="Int32" Name="connectivity" format="ascii">
0 1
1 2
2 3
3 4
4 5
5 6
6 7
7 8
8 9
9 10
10 11
11 12
12 13
13 14
14 15
15 16
16 17
17 18
18 19
19 20
20 21
21 22
22 23
23 24
24 25
25 26
26 27
27 28
28 29
29 30
30 31
31 32
32 33
33 34
34 35
0 35
0 34
1 34
1 33
2 33
2 32
3 32
3 31
4 31
4 30
5 30
5 7
30 7
30 8
29 8
29 9
28 9
28 10
27 10
27 11
26 11
26 12
25 12
25 13
25 14
24 14
24 15
23 15
23 16
22 16
22 17
21 17
21 18
20 18
      </DataArray>
      <DataArray type="Int32" Name="offsets" format="ascii">
2
4
6
8
10
12
14
16
18
20
22
24
26
28
30
32
34
36
38
40
42
44
46
48
50
52
54
56
58
60
62
64
66
68
70
72
74
76
78
80
82
84
86
88
90
92
94
96
98
100
102
104
106
108
110
112
114
116
118
120
122
124
126
128
130
132
134
136
138
      </DataArray>
      <DataArray type="UInt8" Name="types" format="ascii">
4
4
4
4
4
4
4
4
4
4
4
4
4
4
4
4
4
4
4
4
4
4
4
4
4
4
4
4
4
4
4
4
4
4
4
4
4
4
4
4
4
4
4
4
4
4
4
4
4
4
4
4
4
4
4
4
4
4
4
4
4
4
4
4
4
4
4
4
4
      </DataArray>
    </Cells>
    <PointData>
      <DataArray type="Float64" NumberOfComponents="3" Name="Displacement" format="ascii">
0 0 0
0.000410392 1.98169e-05 0
0.000831345 -8.79916e-06 0
0.000979259 -5.49679e-05 0
0.000730256 -7.65435e-05 0
0.000273197 -4.77005e-05 0
0.000202327 -4.80117e-05 0
0.00020303 1.79971e-05 0
0.000264661 0.000408935 0
0.000428786 -0.0022812 0
0.000145113 -0.00202153 0
-9.76598e-05 0.000967179 0
0.000117446 0.000209641 0
0.000124012 4.03932e-05 0
-0.00015691 5.24399e-06 0
-0.000894439 4.13128e-05 0
-0.00125329 0.000102219 0
-0.00109135 0.000139476 0
-0.000541461 0.000112129 0
0 0 0
0 0 0
-0.000553147 2.62911e-06 0
-0.00109808 6.71078e-05 0
-0.00125288 0.000151813 0
-0.000886594 0.00020846 0
-0.000143773 0.000192174 0
1.89759e-05 0.00101243 0
0.000310456 -0.00181902 0
0.000185847 -0.00213491 0
4.29338e-05 0.000410298 0
0.000267441 4.62451e-05 0
0.000736154 1.22579e-05 0
0.00097975 -4.59891e-05 0
0.000826027 -8.60216e-05 0
0.000401136 -7.68499e-05 0
0 0 0
      </DataArray> 
      <DataArray type="Float64" NumberOfComponents="3" Name="Velocity" format="ascii">
0 0 0
-7.77004e-05 -9.06816e-06 0
-0.000162996 -5.50668e-06 0
-0.000159605 -3.25163e-06 0
-0.000111766 -3.89129e-06 0
-2.27323e-05 -1.49489e-05 0
-5.2466e-05 -1.45282e-05 0
-5.3292e-05 -1.76354e-05 0
-9.68614e-05 -7.86279e-06 0
-0.000161202 0.00121632 0
-6.20206e-05 0.00128196 0
0.000108151 7.56319e-05 0
-2.55356e-06 -5.14105e-05 0
-7.55487e-06 -2.50882e-05 0
-1.82549e-05 -1.20742e-05 0
6.97879e-05 -9.0501e-06 0
0.000134232 -1.3721e-05 0
0.000118429 -1.56282e-05 0
6.94869e-05 -1.34423e-05 0
0 0 0
0 0 0
7.08602e-05 -3.34843e-06 0
0.000119176 -1.27186e-05 0
0.000134065 -2.74321e-05 0
6.87595e-05 -3.716e-05 0
-1.90088e-05 -3.89394e-05 0
-4.0954e-05 1.52458e-06 0
-0.000140671 0.00145473 0
3.01829e-07 0.00140132 0
6.17734e-05 -8.04415e-05 0
-2.09333e-05 -2.73358e-05 0
-0.000112921 -1.79553e-05 0
-0.000159876 -5.14882e-06 0
-0.000162142 9.53135e-06 0
-7.55698e-05 1.20883e-05 0
0 0 0
      </DataArray> 
      <DataArray type="Float64" NumberOfComponents="3" Name="Acceleration" format="ascii">
0 0 0
-6.45068e-05 5.28632e-08 0
-0.000106401 2.23873e-06 0
-0.000144185 1.05123e-05 0
-8.88012e-05 1.18368e-05 0
-3.97403e-05 1.49248e-05 0
7.58915e-05 1.3242e-05 0
7.37564e-05 -2.05788e-05 0
5.54861e-06 -5.85974e-05 0
-2.61529e-05 -2.28873e-05 0
8.81246e-05 2.49703e-05 0
2.14213e-05 -2.56763e-05 0
-5.66251e-05 -1.16551e-05 0
-5.37498e-05 1.27239e-05 0
7.3132e-05 -3.5844e-06 0
0.000154636 -2.30492e-05 0
0.000165818 -3.4735e-05 0
0.000141823 -3.5881e-05 0
7.14397e-05 -2.25886e-05 0
0 0 0
0 0 0
7.23355e-05 -1.39047e-05 0
0.000141928 -2.55914e-05 0
0.000165373 -2.8318e-05 0
0.000154828 -2.66071e-05 0
6.66837e-05 -2.03553e-05 0
-3.31055e-05 -0.000361089 0
6.09026e-05 -0.000902616 0
-4.32723e-05 -0.000864777 0
-0.000132077 -0.000293032 0
-4.30561e-05 -8.26413e-06 0
-8.9363e-05 -3.1862e-06 0
-0.00014412 8.27247e-06 0
-0.000105368 1.20802e-05 0
-6.35616e-05 1.19774e-05 0
0 0 0
      </DataArray> 
    </PointData>
    <CellData>
    </CellData>
  </Piece>
  </UnstructuredGrid>
</VTKFile>
