<?xml version="1.0"?>
<VTKFile type="UnstructuredGrid">
  <UnstructuredGrid>
  <Piece NumberOfPoints="36"  NumberOfCells="69">
    <Points>
      <DataArray type="Float64" NumberOfComponents="3" format="ascii">
0 0 0
-0.00338679 0.999466 0
-0.00822984 1.99943 0
-0.0118836 2.99985 0
-0.0120728 4.00062 0
-0.00690582 5.00167 0
0.00764878 6.00156 0
0.407624 5.99707 0
3.40829 5.93664 0
6.40538 5.89231 0
9.39979 5.89139 0
12.3939 5.93405 0
15.3905 5.99552 0
15.7906 6.00067 0
15.8052 4.99988 0
15.8109 3.99919 0
15.8116 2.99874 0
15.8086 1.99867 0
15.8039 0.999078 0
15.8 0 0
15.4 0 0
15.404 0.999953 0
15.4087 1.99943 0
15.4116 2.99854 0
15.4109 3.9974 0
15.4053 4.99606 0
12.4072 4.9345 0
9.40496 4.89167 0
6.39958 4.89226 0
3.39457 4.93634 0
0.392909 4.99825 0
0.387975 3.99946 0
0.388179 3.00031 0
0.391844 2.00073 0
0.396695 1.00064 0
0.4 0 0
      </DataArray>
    </Points>
    <Cells>
      <DataArray type="Int32" Name="connectivity" format="ascii">
0 1
1 2
2 3
3 4
4 5
5 6
6 7
7 8
8 9
9 10
10 11
11 12
12 13
13 14
14 15
15 16
16 17
17 18
18 19
19 20
20 21
21 22
22 23
23 24
24 25
25 26
26 27
27 28
28 29
29 30
30 31
31 32
32 33
33 34
34 35
0 35
0 34
1 34
1 33
2 33
2 32
3 32
3 31
4 31
4 30
5 30
5 7
30 7
30 8
29 8
29 9
28 9
28 10
27 10
27 11
26 11
26 12
25 12
25 13
25 14
24 14
24 15
23 15
23 16
22 16
22 17
21 17
21 18
20 18
      </DataArray>
      <DataArray type="Int32" Name="offsets" format="ascii">
2
4
6
8
10
12
14
16
18
20
22
24
26
28
30
32
34
36
38
40
42
44
46
48
50
52
54
56
58
60
62
64
66
68
70
72
74
76
78
80
82
84
86
88
90
92
94
96
98
100
102
104
106
108
110
112
114
116
118
120
122
124
126
128
130
132
134
136
138
      </DataArray>
      <DataArray type="UInt8" Name="types" format="ascii">
4
4
4
4
4
4
4
4
4
4
4
4
4
4
4
4
4
4
4
4
4
4
4
4
4
4
4
4
4
4
4
4
4
4
4
4
4
4
4
4
4
4
4
4
4
4
4
4
4
4
4
4
4
4
4
4
4
4
4
4
4
4
4
4
4
4
4
4
4
      </DataArray>
    </Cells>
    <PointData>
      <DataArray type="Float64" NumberOfComponents="3" Name="Displacement" format="ascii">
0 0 0
-0.00338679 -0.000534333 0
-0.00822984 -0.000566214 0
-0.0118836 -0.000152307 0
-0.0120728 0.000619754 0
-0.00690582 0.00166771 0
0.00764878 0.00156191 0
0.00762365 -0.0029315 0
0.00829325 -0.0633616 0
0.00537749 -0.107694 0
-0.000206462 -0.108605 0
-0.00612911 -0.0659467 0
-0.00946641 -0.00447594 0
-0.00935742 0.000669561 0
0.0052118 -0.000117809 0
0.0108624 -0.000814822 0
0.0115897 -0.00126361 0
0.00862611 -0.00133341 0
0.00388592 -0.000922408 0
0 0 0
0 0 0
0.00396568 -4.65113e-05 0
0.00869468 -0.000567969 0
0.0116417 -0.00145577 0
0.0109038 -0.00260178 0
0.00526122 -0.00394212 0
0.00715211 -0.0654971 0
0.00495603 -0.108329 0
-0.000422261 -0.107742 0
-0.00542903 -0.0636556 0
-0.00709149 -0.00175122 0
-0.0120251 -0.000536416 0
-0.0118213 0.000313057 0
-0.00815617 0.000727381 0
-0.00330468 0.000638268 0
0 0 0
      </DataArray> 
      <DataArray type="Float64" NumberOfComponents="3" Name="Velocity" format="ascii">
0 0 0
-4.46286e-05 -6.56264e-06 0
-0.000117153 -6.82519e-06 0
-0.000158302 -7.38823e-06 0
-0.000193767 -6.58834e-06 0
-0.000215912 -4.98448e-06 0
-0.000248685 -2.92216e-06 0
-0.000247696 5.00246e-06 0
-0.000223097 -0.000192949 0
-0.000264083 0.000443806 0
-0.000202547 0.000414744 0
-0.000194187 -0.000250815 0
-0.000179388 -1.33446e-05 0
-0.000179739 -5.90114e-06 0
-0.000183894 1.61433e-06 0
-0.000164485 1.26752e-05 0
-9.61815e-05 1.60744e-05 0
-4.45171e-05 1.33188e-05 0
-1.51179e-05 7.17414e-06 0
0 0 0
0 0 0
-1.50361e-05 6.45645e-07 0
-4.46031e-05 -2.54106e-06 0
-9.66829e-05 -7.60772e-06 0
-0.000164699 -8.88585e-06 0
-0.000183027 -1.13755e-05 0
-0.000180155 1.49685e-05 0
-0.000218988 0.000554673 0
-0.000209799 0.000602043 0
-0.00011368 9.49092e-05 0
-0.000213928 -1.42772e-07 0
-0.000193535 4.84137e-06 0
-0.000158096 9.08756e-06 0
-0.000116674 1.31417e-05 0
-4.36409e-05 9.75316e-06 0
0 0 0
      </DataArray> 
      <DataArray type="Float64" NumberOfComponents="3" Name="Acceleration" format="ascii">
0 0 0
0.000127957 1.09822e-05 0
0.000226734 1.03837e-05 0
0.000290973 -3.57718e-06 0
0.000195462 -7.32966e-06 0
0.00013885 -9.66712e-06 0
1.08869e-05 -5.65039e-06 0
9.29467e-06 3.11777e-05 0
-6.72614e-05 0.000187626 0
7.84272e-05 0.000261484 0
4.52136e-05 0.000261751 0
5.00781e-05 0.0002173 0
6.27952e-05 5.01221e-05 0
6.34718e-05 3.3531e-06 0
-4.5405e-05 -2.83012e-06 0
-0.000267858 1.21166e-05 0
-0.000364919 3.15816e-05 0
-0.000329415 4.498e-05 0
-0.000142423 3.27341e-05 0
0 0 0
0 0 0
-0.000146027 2.59e-08 0
-0.000331458 2.23539e-05 0
-0.000364606 4.35981e-05 0
-0.000266554 5.72812e-05 0
-4.31552e-05 4.98577e-05 0
-4.30353e-05 0.000354674 0
-4.79334e-05 0.000481819 0
-2.18049e-05 0.000497466 0
6.28727e-05 0.000341945 0
0.000132645 1.33303e-05 0
0.000197871 1.39953e-05 0
0.000290954 -3.34846e-06 0
0.000225495 -1.48722e-05 0
0.000125391 -1.87528e-05 0
0 0 0
      </DataArray> 
    </PointData>
    <CellData>
    </CellData>
  </Piece>
  </UnstructuredGrid>
</VTKFile>
