<?xml version="1.0"?>
<VTKFile type="UnstructuredGrid">
  <UnstructuredGrid>
  <Piece NumberOfPoints="36"  NumberOfCells="69">
    <Points>
      <DataArray type="Float64" NumberOfComponents="3" format="ascii">
0 0 0
-0.00187018 0.9996 0
-0.00476539 1.99953 0
-0.00700884 2.99981 0
-0.00688053 4.00046 0
-0.00229768 5.00146 0
0.011537 6.00137 0
0.411515 5.99711 0
3.4122 5.93975 0
6.40945 5.89587 0
9.40387 5.8949 0
12.3979 5.93759 0
15.3948 5.9961 0
15.795 6.00054 0
15.8081 4.99962 0
15.8108 3.99902 0
15.8095 2.99879 0
15.8062 1.99891 0
15.8026 0.999319 0
15.8 0 0
15.4 0 0
15.4026 0.999988 0
15.4062 1.99968 0
15.4096 2.99904 0
15.4108 3.99803 0
15.4082 4.9966 0
12.4104 4.93803 0
9.40872 4.89519 0
6.40362 4.89582 0
3.39889 4.93944 0
0.397522 4.99823 0
0.393175 3.99929 0
0.393047 2.99997 0
0.395288 2.00031 0
0.398182 1.00032 0
0.4 0 0
      </DataArray>
    </Points>
    <Cells>
      <DataArray type="Int32" Name="connectivity" format="ascii">
0 1
1 2
2 3
3 4
4 5
5 6
6 7
7 8
8 9
9 10
10 11
11 12
12 13
13 14
14 15
15 16
16 17
17 18
18 19
19 20
20 21
21 22
22 23
23 24
24 25
25 26
26 27
27 28
28 29
29 30
30 31
31 32
32 33
33 34
34 35
0 35
0 34
1 34
1 33
2 33
2 32
3 32
3 31
4 31
4 30
5 30
5 7
30 7
30 8
29 8
29 9
28 9
28 10
27 10
27 11
26 11
26 12
25 12
25 13
25 14
24 14
24 15
23 15
23 16
22 16
22 17
21 17
21 18
20 18
      </DataArray>
      <DataArray type="Int32" Name="offsets" format="ascii">
2
4
6
8
10
12
14
16
18
20
22
24
26
28
30
32
34
36
38
40
42
44
46
48
50
52
54
56
58
60
62
64
66
68
70
72
74
76
78
80
82
84
86
88
90
92
94
96
98
100
102
104
106
108
110
112
114
116
118
120
122
124
126
128
130
132
134
136
138
      </DataArray>
      <DataArray type="UInt8" Name="types" format="ascii">
4
4
4
4
4
4
4
4
4
4
4
4
4
4
4
4
4
4
4
4
4
4
4
4
4
4
4
4
4
4
4
4
4
4
4
4
4
4
4
4
4
4
4
4
4
4
4
4
4
4
4
4
4
4
4
4
4
4
4
4
4
4
4
4
4
4
4
4
4
      </DataArray>
    </Cells>
    <PointData>
      <DataArray type="Float64" NumberOfComponents="3" Name="Displacement" format="ascii">
0 0 0
-0.00187018 -0.000400454 0
-0.00476539 -0.000467414 0
-0.00700884 -0.000186018 0
-0.00688053 0.00046083 0
-0.00229768 0.00146424 0
0.011537 0.00136793 0
0.0115145 -0.00289315 0
0.0121959 -0.0602512 0
0.00945051 -0.10413 0
0.00387272 -0.105104 0
-0.00208727 -0.0624125 0
-0.00517659 -0.00390191 0
-0.00503993 0.000542392 0
0.00812974 -0.000381413 0
0.0107723 -0.000979483 0
0.00949469 -0.00120502 0
0.00619634 -0.00109051 0
0.00255447 -0.00068131 0
0 0 0
0 0 0
0.00260058 -1.1595e-05 0
0.00624734 -0.000318751 0
0.0095519 -0.000959158 0
0.0108376 -0.00197083 0
0.00820879 -0.00339739 0
0.0104323 -0.0619717 0
0.00871976 -0.10481 0
0.00361853 -0.104179 0
-0.00111428 -0.0605578 0
-0.00247787 -0.00177153 0
-0.00682531 -0.000713025 0
-0.00695257 -2.80361e-05 0
-0.00471162 0.000312648 0
-0.0018181 0.000319694 0
0 0 0
      </DataArray> 
      <DataArray type="Float64" NumberOfComponents="3" Name="Velocity" format="ascii">
0 0 0
9.57719e-06 4.13496e-06 0
4.04417e-05 2.41364e-06 0
4.69507e-05 -1.05229e-06 0
5.41327e-05 -9.9033e-06 0
2.32289e-05 -2.29228e-05 0
-0.000162327 -1.79341e-05 0
-0.000162743 2.90228e-05 0
-0.000211245 0.000452801 0
-0.000244661 0.0022062 0
-3.61459e-05 0.00221543 0
0.000113442 0.000475156 0
8.36372e-05 -3.58274e-06 0
7.94274e-05 -4.02262e-05 0
-9.43004e-05 -2.24993e-05 0
-0.000166001 -1.61829e-06 0
-0.000181457 1.54415e-05 0
-0.000133744 2.12308e-05 0
-6.29323e-05 1.57071e-05 0
0 0 0
0 0 0
-6.39891e-05 5.21727e-07 0
-0.000134654 2.92118e-06 0
-0.000181906 5.15196e-06 0
-0.000165854 4.43175e-06 0
-9.49894e-05 3.45142e-06 0
-0.000144003 0.000732774 0
-0.000159276 0.00235794 0
-5.74046e-05 0.00236496 0
0.000103383 0.000727248 0
2.50337e-05 4.14691e-06 0
5.39135e-05 1.62162e-07 0
4.67301e-05 -3.46473e-07 0
4.01311e-05 -2.55174e-06 0
9.11428e-06 -1.75973e-06 0
0 0 0
      </DataArray> 
      <DataArray type="Float64" NumberOfComponents="3" Name="Acceleration" format="ascii">
0 0 0
-3.38019e-05 3.15481e-06 0
-4.07327e-05 5.58726e-06 0
-6.47334e-05 1.30834e-05 0
-2.86366e-05 1.52151e-05 0
-1.16245e-05 2.26543e-05 0
2.84535e-05 2.591e-05 0
2.46883e-05 1.56305e-06 0
-0.000101816 3.88891e-06 0
-7.26644e-05 0.000311589 0
-6.87987e-05 0.000367699 0
2.06965e-05 7.22987e-05 0
3.57677e-05 -9.70414e-06 0
2.66981e-05 -1.24704e-05 0
-8.86211e-05 2.12197e-05 0
0.000132666 1.75751e-05 0
0.000145597 1.44176e-05 0
0.000144026 1.03012e-06 0
5.6842e-05 -5.07127e-06 0
0 0 0
0 0 0
5.9331e-05 1.75051e-05 0
0.000145134 1.41835e-05 0
0.000146101 2.77e-06 0
0.000130329 -2.25292e-05 0
-8.14333e-05 -8.63377e-06 0
7.6595e-05 0.000319525 0
2.01875e-05 0.000515948 0
1.50951e-05 0.000504523 0
6.18518e-05 0.000322906 0
-1.15108e-05 -2.0402e-06 0
-2.77852e-05 1.09005e-06 0
-6.45522e-05 6.94647e-06 0
-4.02098e-05 6.08972e-06 0
-3.31541e-05 5.95019e-06 0
0 0 0
      </DataArray> 
    </PointData>
    <CellData>
    </CellData>
  </Piece>
  </UnstructuredGrid>
</VTKFile>
