<?xml version="1.0"?>
<VTKFile type="UnstructuredGrid">
  <UnstructuredGrid>
  <Piece NumberOfPoints="36"  NumberOfCells="69">
    <Points>
      <DataArray type="Float64" NumberOfComponents="3" format="ascii">
0 0 0
-0.00207491 0.999638 0
-0.00505698 1.99961 0
-0.00720556 2.9999 0
-0.00694038 4.00046 0
-0.00272457 5.00124 0
0.00855533 6.00118 0
0.40854 5.99766 0
3.40913 5.95045 0
6.40681 5.91771 0
9.40256 5.91718 0
12.3981 5.94895 0
15.3955 5.99666 0
15.7957 6.00041 0
15.8065 4.9997 0
15.8095 3.99919 0
15.8089 2.99894 0
15.8061 1.99898 0
15.8026 0.999336 0
15.8 0 0
15.4 0 0
15.4027 0.999987 0
15.4062 1.99967 0
15.409 2.99906 0
15.4095 3.99819 0
15.4066 4.99707 0
12.4081 4.94928 0
9.40635 4.91735 0
6.40238 4.91765 0
3.3986 4.95022 0
0.397136 4.99852 0
0.393098 3.99943 0
0.392841 3.00006 0
0.394994 2.00038 0
0.397979 1.00037 0
0.4 0 0
      </DataArray>
    </Points>
    <Cells>
      <DataArray type="Int32" Name="connectivity" format="ascii">
0 1
1 2
2 3
3 4
4 5
5 6
6 7
7 8
8 9
9 10
10 11
11 12
12 13
13 14
14 15
15 16
16 17
17 18
18 19
19 20
20 21
21 22
22 23
23 24
24 25
25 26
26 27
27 28
28 29
29 30
30 31
31 32
32 33
33 34
34 35
0 35
0 34
1 34
1 33
2 33
2 32
3 32
3 31
4 31
4 30
5 30
5 7
30 7
30 8
29 8
29 9
28 9
28 10
27 10
27 11
26 11
26 12
25 12
25 13
25 14
24 14
24 15
23 15
23 16
22 16
22 17
21 17
21 18
20 18
      </DataArray>
      <DataArray type="Int32" Name="offsets" format="ascii">
2
4
6
8
10
12
14
16
18
20
22
24
26
28
30
32
34
36
38
40
42
44
46
48
50
52
54
56
58
60
62
64
66
68
70
72
74
76
78
80
82
84
86
88
90
92
94
96
98
100
102
104
106
108
110
112
114
116
118
120
122
124
126
128
130
132
134
136
138
      </DataArray>
      <DataArray type="UInt8" Name="types" format="ascii">
4
4
4
4
4
4
4
4
4
4
4
4
4
4
4
4
4
4
4
4
4
4
4
4
4
4
4
4
4
4
4
4
4
4
4
4
4
4
4
4
4
4
4
4
4
4
4
4
4
4
4
4
4
4
4
4
4
4
4
4
4
4
4
4
4
4
4
4
4
      </DataArray>
    </Cells>
    <PointData>
      <DataArray type="Float64" NumberOfComponents="3" Name="Displacement" format="ascii">
0 0 0
-0.00207491 -0.000361807 0
-0.00505698 -0.000388099 0
-0.00720556 -0.00010286 0
-0.00694038 0.000457073 0
-0.00272457 0.00124189 0
0.00855533 0.0011783 0
0.00854016 -0.00234051 0
0.0091329 -0.0495494 0
0.00681333 -0.0822914 0
0.002556 -0.0828187 0
-0.00189084 -0.0510537 0
-0.0044521 -0.00333638 0
-0.00434658 0.000409107 0
0.00650539 -0.000298278 0
0.00947694 -0.0008132 0
0.00890606 -0.00106397 0
0.00612377 -0.00101798 0
0.00262769 -0.00066448 0
0 0 0
0 0 0
0.00267757 -1.25789e-05 0
0.00617203 -0.000330562 0
0.00895118 -0.000936993 0
0.00952027 -0.00180661 0
0.00655386 -0.00292714 0
0.00810228 -0.050721 0
0.00635132 -0.082654 0
0.00237574 -0.0823541 0
-0.00139884 -0.0497832 0
-0.00286365 -0.00147782 0
-0.00690213 -0.000565961 0
-0.00715937 6.34586e-05 0
-0.00500597 0.000384217 0
-0.00202061 0.000368563 0
0 0 0
      </DataArray> 
      <DataArray type="Float64" NumberOfComponents="3" Name="Velocity" format="ascii">
0 0 0
-9.27294e-05 -1.9403e-05 0
-0.000269141 -2.60128e-05 0
-0.000474583 -1.44567e-05 0
-0.00060307 1.62419e-05 0
-0.000526271 5.86271e-05 0
-6.6127e-05 5.29372e-05 0
-6.7237e-05 -7.49289e-05 0
-4.23166e-05 -0.00190333 0
-0.000105247 -0.00430353 0
-0.000363387 -0.00441049 0
-0.000596747 -0.00214873 0
-0.000701537 -0.000147479 0
-0.000699108 4.36096e-05 0
-0.000159683 2.25417e-05 0
0.000140376 -3.58669e-06 0
0.000264016 -2.43694e-05 0
0.000243266 -3.39352e-05 0
0.000126825 -2.68755e-05 0
0 0 0
0 0 0
0.000129632 -7.31804e-06 0
0.000245319 -2.94101e-05 0
0.000265329 -6.03131e-05 0
0.000141048 -9.59636e-05 0
-0.0001601 -0.000132147 0
-0.000126914 -0.0021338 0
-0.000133078 -0.00417975 0
-0.000333275 -0.00411319 0
-0.000609299 -0.00195301 0
-0.000536532 -2.64195e-05 0
-0.000600793 1.26453e-05 0
-0.000471626 3.1986e-05 0
-0.000266803 3.35257e-05 0
-9.09171e-05 2.23889e-05 0
0 0 0
      </DataArray> 
      <DataArray type="Float64" NumberOfComponents="3" Name="Acceleration" format="ascii">
0 0 0
4.6577e-05 -3.39074e-07 0
9.38621e-05 -3.55043e-06 0
0.000118863 -7.94015e-06 0
0.0001209 -1.6196e-05 0
-1.33719e-05 -2.52419e-06 0
3.2797e-05 -1.63487e-06 0
3.07984e-05 -7.52871e-06 0
-2.03161e-05 0.000296776 0
-4.88083e-05 -0.000324227 0
-8.72693e-05 -0.000346928 0
-4.04589e-05 0.000262798 0
-1.36747e-05 8.82231e-06 0
-1.87182e-05 4.35251e-06 0
-8.84715e-05 1.77373e-05 0
-6.21466e-05 2.43066e-05 0
-7.6015e-05 3.1031e-05 0
-3.99703e-05 2.45122e-05 0
-3.27136e-05 1.36848e-05 0
0 0 0
0 0 0
-3.2146e-05 1.61169e-05 0
-4.00684e-05 2.10406e-05 0
-7.6051e-05 2.23828e-05 0
-6.12064e-05 1.31288e-05 0
-8.11521e-05 1.13164e-05 0
2.94064e-05 0.000390553 0
8.48866e-05 0.000538332 0
9.34274e-05 0.000526608 0
5.28621e-05 0.000362127 0
-9.15996e-06 1.13431e-05 0
0.000121788 -2.41308e-06 0
0.00011851 -1.00733e-05 0
9.32816e-05 -1.31469e-05 0
4.54365e-05 -1.00503e-05 0
0 0 0
      </DataArray> 
    </PointData>
    <CellData>
    </CellData>
  </Piece>
  </UnstructuredGrid>
</VTKFile>
