<?xml version="1.0"?>
<VTKFile type="UnstructuredGrid">
  <UnstructuredGrid>
  <Piece NumberOfPoints="36"  NumberOfCells="69">
    <Points>
      <DataArray type="Float64" NumberOfComponents="3" format="ascii">
0 0 0
-0.002754 0.99943 0
-0.00730794 1.99928 0
-0.0115434 2.99957 0
-0.0132519 4.0003 0
-0.00990478 5.00147 0
0.00417688 6.00137 0
0.404154 5.99721 0
3.40495 5.93772 0
6.40212 5.89226 0
9.39638 5.89091 0
12.3902 5.93463 0
15.3868 5.99591 0
15.787 6.00084 0
15.8011 5.00002 0
15.8056 3.99944 0
15.8061 2.99918 0
15.8045 1.99921 0
15.802 0.999485 0
15.8 0 0
15.4 0 0
15.4021 0.999861 0
15.4045 1.99947 0
15.4062 2.99879 0
15.4056 3.99779 0
15.4012 4.99643 0
12.4033 4.93514 0
9.40141 4.89119 0
6.39608 4.89218 0
3.39122 4.93746 0
0.38989 4.99849 0
0.386816 3.99967 0
0.388526 3.00039 0
0.392759 2.00068 0
0.397311 1.00055 0
0.4 0 0
      </DataArray>
    </Points>
    <Cells>
      <DataArray type="Int32" Name="connectivity" format="ascii">
0 1
1 2
2 3
3 4
4 5
5 6
6 7
7 8
8 9
9 10
10 11
11 12
12 13
13 14
14 15
15 16
16 17
17 18
18 19
19 20
20 21
21 22
22 23
23 24
24 25
25 26
26 27
27 28
28 29
29 30
30 31
31 32
32 33
33 34
34 35
0 35
0 34
1 34
1 33
2 33
2 32
3 32
3 31
4 31
4 30
5 30
5 7
30 7
30 8
29 8
29 9
28 9
28 10
27 10
27 11
26 11
26 12
25 12
25 13
25 14
24 14
24 15
23 15
23 16
22 16
22 17
21 17
21 18
20 18
      </DataArray>
      <DataArray type="Int32" Name="offsets" format="ascii">
2
4
6
8
10
12
14
16
18
20
22
24
26
28
30
32
34
36
38
40
42
44
46
48
50
52
54
56
58
60
62
64
66
68
70
72
74
76
78
80
82
84
86
88
90
92
94
96
98
100
102
104
106
108
110
112
114
116
118
120
122
124
126
128
130
132
134
136
138
      </DataArray>
      <DataArray type="UInt8" Name="types" format="ascii">
4
4
4
4
4
4
4
4
4
4
4
4
4
4
4
4
4
4
4
4
4
4
4
4
4
4
4
4
4
4
4
4
4
4
4
4
4
4
4
4
4
4
4
4
4
4
4
4
4
4
4
4
4
4
4
4
4
4
4
4
4
4
4
4
4
4
4
4
4
      </DataArray>
    </Cells>
    <PointData>
      <DataArray type="Float64" NumberOfComponents="3" Name="Displacement" format="ascii">
0 0 0
-0.002754 -0.000569938 0
-0.00730794 -0.000721042 0
-0.0115434 -0.000433987 0
-0.0132519 0.000303412 0
-0.00990478 0.00147196 0
0.00417688 0.00137346 0
0.00415445 -0.00279087 0
0.00494715 -0.0622758 0
0.00211572 -0.107739 0
-0.00362417 -0.109088 0
-0.0097982 -0.0653698 0
-0.0131512 -0.0040926 0
-0.0130352 0.000842169 0
0.00109149 1.52917e-05 0
0.00556088 -0.000558418 0
0.00614032 -0.000820751 0
0.00448017 -0.000794797 0
0.00201853 -0.000514711 0
0 0 0
0 0 0
0.00205785 -0.000139014 0
0.00452357 -0.000532051 0
0.00618969 -0.00121156 0
0.00561882 -0.00221269 0
0.00116749 -0.00356908 0
0.00333575 -0.0648588 0
0.00141156 -0.108813 0
-0.00391976 -0.107816 0
-0.00878295 -0.0625395 0
-0.0101098 -0.00150696 0
-0.0131838 -0.000333963 0
-0.0114742 0.000389901 0
-0.00724143 0.000683016 0
-0.00268858 0.000552326 0
0 0 0
      </DataArray> 
      <DataArray type="Float64" NumberOfComponents="3" Name="Velocity" format="ascii">
0 0 0
0.000209829 1.15964e-06 0
0.000416754 -1.99956e-05 0
0.000478232 -4.76266e-05 0
0.00034504 -5.95966e-05 0
0.000137106 -4.2569e-05 0
0.000154705 -4.30646e-05 0
0.000153378 -2.81145e-05 0
0.000120199 -6.89603e-05 0
0.0001002 -0.00030513 0
9.60786e-05 -0.000446358 0
3.22769e-05 -0.000199181 0
-6.2856e-05 5.19e-05 0
-6.06994e-05 -3.26968e-06 0
-0.000156811 -2.98192e-05 0
-0.000621864 -9.91769e-06 0
-0.000944568 4.73387e-05 0
-0.000827177 8.88528e-05 0
-0.000401939 7.80809e-05 0
0 0 0
0 0 0
-0.000411482 -1.48869e-05 0
-0.0008326 2.19064e-05 0
-0.000943071 7.41622e-05 0
-0.000615647 9.05772e-05 0
-0.000147066 5.99136e-05 0
-1.07228e-06 -0.000308123 0
3.059e-05 -0.00070475 0
1.62777e-05 -0.000567546 0
4.58958e-05 -0.000178861 0
0.000132339 -8.8242e-06 0
0.000348682 -1.53983e-05 0
0.000478948 -3.64143e-05 0
0.000414489 -5.07977e-05 0
0.000205547 -4.18612e-05 0
0 0 0
      </DataArray> 
      <DataArray type="Float64" NumberOfComponents="3" Name="Acceleration" format="ascii">
0 0 0
-2.67698e-05 -4.37652e-06 0
-4.29298e-05 -4.55144e-06 0
-3.16549e-05 -3.85347e-06 0
7.00913e-06 -1.26698e-05 0
-2.73171e-05 -2.27589e-05 0
-8.08965e-05 -2.72905e-05 0
-7.75646e-05 6.99916e-07 0
3.94879e-05 0.000405353 0
4.17235e-05 0.000232039 0
-1.68539e-05 0.000280548 0
5.94128e-05 0.000456214 0
0.00011168 -1.58772e-05 0
0.000115287 -7.87927e-06 0
5.65596e-05 2.49089e-06 0
9.16415e-05 2.7289e-06 0
0.000126005 -4.23696e-06 0
0.000121444 -1.21562e-05 0
5.69866e-05 -1.12394e-05 0
0 0 0
0 0 0
5.80713e-05 3.28698e-06 0
0.000122042 -8.68957e-07 0
0.000125706 -2.59667e-06 0
8.93889e-05 -1.24277e-06 0
5.27136e-05 2.67778e-06 0
-2.14513e-05 -1.07629e-06 0
-5.03926e-05 0.000622994 0
4.09572e-05 0.00064332 0
4.00729e-05 1.30658e-06 0
-1.89904e-05 9.1771e-06 0
6.48083e-06 -3.70094e-06 0
-3.39423e-05 -3.91736e-06 0
-4.28428e-05 -5.76591e-07 0
-2.605e-05 2.1619e-06 0
0 0 0
      </DataArray> 
    </PointData>
    <CellData>
    </CellData>
  </Piece>
  </UnstructuredGrid>
</VTKFile>
