<?xml version="1.0"?>
<VTKFile type="UnstructuredGrid">
  <UnstructuredGrid>
  <Piece NumberOfPoints="36"  NumberOfCells="69">
    <Points>
      <DataArray type="Float64" NumberOfComponents="3" format="ascii">
0 0 0
-9.16073e-05 0.999869 0
-0.000418983 1.99981 0
-0.000720889 2.99988 0
-0.00039194 4.00014 0
0.00169882 5.00064 0
0.0085344 6.00061 0
0.408529 5.99851 0
3.40899 5.97039 0
6.40774 5.94721 0
9.40479 5.94712 0
12.4018 5.97018 0
15.4005 5.99835 0
15.8006 6.00022 0
15.8066 4.99964 0
15.8062 3.99938 0
15.8043 2.99937 0
15.8023 1.99952 0
15.8007 0.999747 0
15.8 0 0
15.4 0 0
15.4007 1.00004 0
15.4023 2 0
15.4044 2.9998 0
15.4063 3.99935 0
15.4066 4.99857 0
12.4079 4.97044 0
9.4073 4.94737 0
6.40477 4.94726 0
3.40227 4.97025 0
0.401612 4.99904 0
0.399642 3.9995 0
0.399304 2.99976 0
0.399597 1.9999 0
0.399918 0.999975 0
0.4 0 0
      </DataArray>
    </Points>
    <Cells>
      <DataArray type="Int32" Name="connectivity" format="ascii">
0 1
1 2
2 3
3 4
4 5
5 6
6 7
7 8
8 9
9 10
10 11
11 12
12 13
13 14
14 15
15 16
16 17
17 18
18 19
19 20
20 21
21 22
22 23
23 24
24 25
25 26
26 27
27 28
28 29
29 30
30 31
31 32
32 33
33 34
34 35
0 35
0 34
1 34
1 33
2 33
2 32
3 32
3 31
4 31
4 30
5 30
5 7
30 7
30 8
29 8
29 9
28 9
28 10
27 10
27 11
26 11
26 12
25 12
25 13
25 14
24 14
24 15
23 15
23 16
22 16
22 17
21 17
21 18
20 18
      </DataArray>
      <DataArray type="Int32" Name="offsets" format="ascii">
2
4
6
8
10
12
14
16
18
20
22
24
26
28
30
32
34
36
38
40
42
44
46
48
50
52
54
56
58
60
62
64
66
68
70
72
74
76
78
80
82
84
86
88
90
92
94
96
98
100
102
104
106
108
110
112
114
116
118
120
122
124
126
128
130
132
134
136
138
      </DataArray>
      <DataArray type="UInt8" Name="types" format="ascii">
4
4
4
4
4
4
4
4
4
4
4
4
4
4
4
4
4
4
4
4
4
4
4
4
4
4
4
4
4
4
4
4
4
4
4
4
4
4
4
4
4
4
4
4
4
4
4
4
4
4
4
4
4
4
4
4
4
4
4
4
4
4
4
4
4
4
4
4
4
      </DataArray>
    </Cells>
    <PointData>
      <DataArray type="Float64" NumberOfComponents="3" Name="Displacement" format="ascii">
0 0 0
-9.16073e-05 -0.000130594 0
-0.000418983 -0.000189225 0
-0.000720889 -0.000120435 0
-0.00039194 0.000140146 0
0.00169882 0.000638578 0
0.0085344 0.000614775 0
0.00852858 -0.00149059 0
0.00898951 -0.0296108 0
0.00773529 -0.0527868 0
0.0047933 -0.0528802 0
0.00176016 -0.0298202 0
0.00052155 -0.00164688 0
0.000610859 0.00021596 0
0.00658281 -0.000360096 0
0.0062198 -0.000621867 0
0.00433044 -0.000627437 0
0.00225284 -0.000475371 0
0.000738731 -0.000253402 0
0 0 0
0 0 0
0.000747388 3.69977e-05 0
0.00227162 4.99798e-07 0
0.00436373 -0.000195921 0
0.00626699 -0.000648288 0
0.00663898 -0.00143372 0
0.00788043 -0.0295618 0
0.00730335 -0.0526286 0
0.00477177 -0.0527427 0
0.00227023 -0.0297522 0
0.00161243 -0.000962458 0
-0.000358343 -0.000503702 0
-0.000695556 -0.000237015 0
-0.000403108 -9.59417e-05 0
-8.21645e-05 -2.52579e-05 0
0 0 0
      </DataArray> 
      <DataArray type="Float64" NumberOfComponents="3" Name="Velocity" format="ascii">
0 0 0
-0.0001181 -2.31166e-05 0
-0.000321201 -3.05958e-05 0
-0.000540639 -1.81283e-05 0
-0.000656941 1.33929e-05 0
-0.000583275 6.98626e-05 0
-2.05926e-06 6.72825e-05 0
-2.62933e-06 -0.00010032 0
4.83691e-05 -0.00266118 0
-3.78375e-05 -0.00493557 0
-0.000321249 -0.00499098 0
-0.000644988 -0.00278162 0
-0.000712567 -0.000151628 0
-0.000706814 4.60569e-05 0
-0.000134556 1.36832e-05 0
2.83844e-05 -2.13479e-06 0
8.3024e-05 -8.41736e-06 0
6.70606e-05 -8.78514e-06 0
2.87607e-05 -5.80852e-06 0
0 0 0
0 0 0
2.96879e-05 -2.36518e-06 0
6.83898e-05 -1.43978e-05 0
8.473e-05 -3.92352e-05 0
3.08456e-05 -7.69994e-05 0
-0.000130155 -0.000133544 0
-2.82014e-05 -0.00251273 0
-5.18893e-05 -0.00487127 0
-0.000336615 -0.0048327 0
-0.000540404 -0.00241319 0
-0.000592762 -4.54496e-05 0
-0.000653321 2.10632e-06 0
-0.000537324 2.98538e-05 0
-0.000318242 3.64908e-05 0
-0.00011555 2.63126e-05 0
0 0 0
      </DataArray> 
      <DataArray type="Float64" NumberOfComponents="3" Name="Acceleration" format="ascii">
0 0 0
-8.81863e-05 6.79978e-07 0
-0.000189734 1.14308e-05 0
-0.000221164 2.35182e-05 0
-0.000167466 2.87091e-05 0
-7.52245e-05 2.16253e-05 0
-3.00685e-05 1.89912e-05 0
-3.06415e-05 1.07857e-06 0
-5.03378e-05 0.000162966 0
7.82837e-05 0.000205316 0
3.2543e-05 0.000263724 0
-6.99516e-06 0.000205715 0
7.61554e-05 -3.47472e-05 0
8.11178e-05 -1.37181e-05 0
5.34549e-06 1.49635e-05 0
0.000270001 -1.12916e-06 0
0.00033277 -2.01757e-05 0
0.000293215 -3.51911e-05 0
0.000131695 -2.85912e-05 0
0 0 0
0 0 0
0.000134762 4.53804e-06 0
0.000295051 -8.24609e-06 0
0.000332715 -2.29144e-05 0
0.000266929 -3.85758e-05 0
2.85409e-06 -1.6446e-05 0
1.06482e-05 -0.000244292 0
-6.57641e-05 -0.000223837 0
-0.000155782 -0.000208709 0
-2.59626e-05 -0.000215738 0
-7.14821e-05 6.37384e-06 0
-0.000169209 1.16343e-05 0
-0.000221551 2.17003e-05 0
-0.000188757 2.71572e-05 0
-8.65845e-05 1.9691e-05 0
0 0 0
      </DataArray> 
    </PointData>
    <CellData>
    </CellData>
  </Piece>
  </UnstructuredGrid>
</VTKFile>
