<?xml version="1.0"?>
<VTKFile type="UnstructuredGrid">
  <UnstructuredGrid>
  <Piece NumberOfPoints="36"  NumberOfCells="69">
    <Points>
      <DataArray type="Float64" NumberOfComponents="3" format="ascii">
0 0 0
-3.56097e-05 1.00005 0
0.000301218 2.00013 0
0.00116866 3.00022 0
0.002632 4.00027 0
0.00450667 5.00028 0
0.00633375 6.00028 0
0.406333 5.99956 0
3.40632 5.99317 0
6.40609 5.98771 0
9.40543 5.98817 0
12.4048 5.99402 0
15.4047 5.99956 0
15.8047 5.9999 0
15.806 4.99973 0
15.8057 3.99961 0
15.8045 2.99954 0
15.8029 1.99957 0
15.8011 0.999715 0
15.8 0 0
15.4 0 0
15.4012 1.0001 0
15.4029 2.00008 0
15.4045 2.99998 0
15.4057 3.99981 0
15.406 4.9996 0
12.4062 4.994 0
9.40609 4.98828 0
6.40547 4.98777 0
3.40477 4.99306 0
0.404503 4.99958 0
0.402626 3.99967 0
0.401167 2.99978 0
0.400304 1.99988 0
0.39997 0.999962 0
0.4 0 0
      </DataArray>
    </Points>
    <Cells>
      <DataArray type="Int32" Name="connectivity" format="ascii">
0 1
1 2
2 3
3 4
4 5
5 6
6 7
7 8
8 9
9 10
10 11
11 12
12 13
13 14
14 15
15 16
16 17
17 18
18 19
19 20
20 21
21 22
22 23
23 24
24 25
25 26
26 27
27 28
28 29
29 30
30 31
31 32
32 33
33 34
34 35
0 35
0 34
1 34
1 33
2 33
2 32
3 32
3 31
4 31
4 30
5 30
5 7
30 7
30 8
29 8
29 9
28 9
28 10
27 10
27 11
26 11
26 12
25 12
25 13
25 14
24 14
24 15
23 15
23 16
22 16
22 17
21 17
21 18
20 18
      </DataArray>
      <DataArray type="Int32" Name="offsets" format="ascii">
2
4
6
8
10
12
14
16
18
20
22
24
26
28
30
32
34
36
38
40
42
44
46
48
50
52
54
56
58
60
62
64
66
68
70
72
74
76
78
80
82
84
86
88
90
92
94
96
98
100
102
104
106
108
110
112
114
116
118
120
122
124
126
128
130
132
134
136
138
      </DataArray>
      <DataArray type="UInt8" Name="types" format="ascii">
4
4
4
4
4
4
4
4
4
4
4
4
4
4
4
4
4
4
4
4
4
4
4
4
4
4
4
4
4
4
4
4
4
4
4
4
4
4
4
4
4
4
4
4
4
4
4
4
4
4
4
4
4
4
4
4
4
4
4
4
4
4
4
4
4
4
4
4
4
      </DataArray>
    </Cells>
    <PointData>
      <DataArray type="Float64" NumberOfComponents="3" Name="Displacement" format="ascii">
0 0 0
-3.56097e-05 5.31167e-05 0
0.000301218 0.000132389 0
0.00116866 0.000216656 0
0.002632 0.000272903 0
0.00450667 0.000283032 0
0.00633375 0.000281598 0
0.00633254 -0.000435437 0
0.00631898 -0.00682807 0
0.00608507 -0.012288 0
0.0054253 -0.0118284 0
0.00482806 -0.00597623 0
0.00470538 -0.000436408 0
0.00473149 -0.000104834 0
0.00596637 -0.000267328 0
0.00565919 -0.000394577 0
0.00453606 -0.000460881 0
0.00287377 -0.000434149 0
0.00113739 -0.000285296 0
0 0 0
0 0 0
0.00115819 0.000102782 0
0.00289109 8.4341e-05 0
0.00454845 -2.48135e-05 0
0.005667 -0.000192879 0
0.00597106 -0.00039629 0
0.00618948 -0.00599576 0
0.00609199 -0.0117209 0
0.0054714 -0.0122325 0
0.00477044 -0.00693703 0
0.00450311 -0.000422367 0
0.00262587 -0.000334631 0
0.00116676 -0.00022154 0
0.000303715 -0.000115787 0
-3.03158e-05 -3.76444e-05 0
0 0 0
      </DataArray> 
      <DataArray type="Float64" NumberOfComponents="3" Name="Velocity" format="ascii">
0 0 0
6.6743e-05 1.97915e-05 0
0.000195906 2.42083e-05 0
0.000294947 1.39978e-05 0
0.000283662 -7.76722e-06 0
0.000105176 -4.20221e-05 0
-0.000386759 -4.14782e-05 0
-0.000385148 0.000113702 0
-0.000373297 0.00223876 0
-0.000207658 0.00253914 0
-9.02016e-05 0.0025176 0
-1.98135e-05 0.00221258 0
0.000154224 0.000135597 0
0.00014997 -3.46242e-06 0
-0.000205535 2.3013e-05 0
-0.000240024 3.8863e-05 0
-0.00010269 2.95816e-05 0
-3.58486e-05 1.76594e-05 0
9.1948e-07 6.06917e-06 0
0 0 0
0 0 0
1.26108e-06 3.41788e-06 0
-3.62223e-05 7.9453e-06 0
-0.000105087 1.74821e-05 0
-0.000243213 5.52309e-05 0
-0.000210714 0.000107309 0
-0.000321508 0.00229056 0
-0.000199528 0.00271845 0
-0.000106745 0.00271609 0
-1.15305e-05 0.00230652 0
0.000111349 7.82182e-05 0
0.000281628 3.47228e-05 0
0.000292805 3.94988e-06 0
0.000193448 -1.16266e-05 0
6.45575e-05 -1.15495e-05 0
0 0 0
      </DataArray> 
      <DataArray type="Float64" NumberOfComponents="3" Name="Acceleration" format="ascii">
0 0 0
4.6285e-05 -4.78332e-06 0
7.15528e-05 -8.762e-06 0
0.000110825 -1.85921e-05 0
6.07261e-05 -2.22876e-05 0
-5.08217e-05 -1.03188e-05 0
-6.12002e-05 -9.94997e-06 0
-5.7417e-05 3.93519e-06 0
8.63018e-05 -0.000476102 0
-6.72862e-05 -0.00058771 0
-1.52079e-05 -0.000589893 0
-0.000170477 -0.000488903 0
-1.40075e-05 2.94594e-05 0
-1.12669e-05 -9.05485e-06 0
-5.35968e-05 -5.40074e-06 0
-8.27074e-05 3.23201e-06 0
-0.000107655 1.45915e-05 0
-0.000101005 2.02863e-05 0
-5.3649e-05 1.47936e-05 0
0 0 0
0 0 0
-5.41932e-05 6.4445e-06 0
-0.000101352 1.10797e-05 0
-0.00010765 1.00501e-05 0
-8.17548e-05 6.84049e-06 0
-5.06016e-05 1.05626e-05 0
6.68375e-06 0.000330559 0
8.43166e-05 -0.000263166 0
-1.86521e-05 -0.000273969 0
7.01405e-05 0.000390756 0
-4.73221e-05 5.1254e-06 0
6.24967e-05 -3.91828e-06 0
0.000110326 -1.42753e-05 0
7.08977e-05 -1.36644e-05 0
4.56473e-05 -1.03201e-05 0
0 0 0
      </DataArray> 
    </PointData>
    <CellData>
    </CellData>
  </Piece>
  </UnstructuredGrid>
</VTKFile>
