<?xml version="1.0"?>
<VTKFile type="UnstructuredGrid">
  <UnstructuredGrid>
  <Piece NumberOfPoints="13"  NumberOfCells="28">
    <Points>
      <DataArray type="Float64" NumberOfComponents="3" format="ascii">
0 0 0
2.99833 0.000914367 0
5.99662 0.00416274 0
8.99488 0.00950586 0
11.9913 0.0277059 0
14.9876 0.0462758 0
15.9844 0.549277 0
14.985 1.04689 0
11.9888 1.0277 0
8.99284 1.00969 0
5.9952 1.00453 0
2.99761 1.00128 0
0 1 0
      </DataArray>
    </Points>
    <Cells>
      <DataArray type="Int32" Name="connectivity" format="ascii">
0 1
1 2
2 3
3 4
4 5
5 6
0 12
0 11
1 11
1 10
2 10
2 9
3 9
3 8
4 8
4 7
5 7
7 6
11 12
11 10
10 9
8 9
7 8
12 1
11 2
10 3
9 4
8 5
      </DataArray>
      <DataArray type="Int32" Name="offsets" format="ascii">
2
4
6
8
10
12
14
16
18
20
22
24
26
28
30
32
34
36
38
40
42
44
46
48
50
52
54
56
      </DataArray>
      <DataArray type="UInt8" Name="types" format="ascii">
4
4
4
4
4
4
4
4
4
4
4
4
4
4
4
4
4
4
4
4
4
4
4
4
4
4
4
4
      </DataArray>
    </Cells>
    <PointData>
      <DataArray type="Float64" NumberOfComponents="3" Name="Displacement" format="ascii">
0 0 0
-0.00166899 0.000914367 0
-0.00338413 0.00416274 0
-0.00511951 0.00950586 0
-0.00866533 0.0277059 0
-0.012355 0.0462758 0
-0.0155869 0.0492774 0
-0.0150374 0.0468905 0
-0.0111631 0.0277014 0
-0.0071625 0.00968814 0
-0.00479921 0.00453036 0
-0.00239279 0.00128428 0
0 0 0
      </DataArray> 
    </PointData>
    <CellData>
    </CellData>
  </Piece>
  </UnstructuredGrid>
</VTKFile>
