<?xml version="1.0"?>
<VTKFile type="UnstructuredGrid">
  <UnstructuredGrid>
  <Piece NumberOfPoints="13"  NumberOfCells="28">
    <Points>
      <DataArray type="Float64" NumberOfComponents="3" format="ascii">
0 0 0
3.11161 1.14394 0
4.58974 4.06933 0
4.48575 7.25894 0
3.13588 10.0337 0
1.41338 12.5243 0
0.441894 13.1003 0
0.569537 11.9956 0
2.24533 9.60454 0
3.52771 7.07851 0
3.64701 4.27809 0
2.50932 1.82685 0
0 1 0
      </DataArray>
    </Points>
    <Cells>
      <DataArray type="Int32" Name="connectivity" format="ascii">
0 1
1 2
2 3
3 4
4 5
5 6
0 12
0 11
1 11
1 10
2 10
2 9
3 9
3 8
4 8
4 7
5 7
7 6
11 12
11 10
10 9
8 9
7 8
12 1
11 2
10 3
9 4
8 5
      </DataArray>
      <DataArray type="Int32" Name="offsets" format="ascii">
2
4
6
8
10
12
14
16
18
20
22
24
26
28
30
32
34
36
38
40
42
44
46
48
50
52
54
56
      </DataArray>
      <DataArray type="UInt8" Name="types" format="ascii">
4
4
4
4
4
4
4
4
4
4
4
4
4
4
4
4
4
4
4
4
4
4
4
4
4
4
4
4
      </DataArray>
    </Cells>
    <PointData>
      <DataArray type="Float64" NumberOfComponents="3" Name="Displacement" format="ascii">
0 0 0
0.111609 1.14394 0
-1.41026 4.06933 0
-4.51425 7.25894 0
-8.86412 10.0337 0
-13.5866 12.5243 0
-15.5581 12.6003 0
-14.4305 10.9956 0
-9.75467 8.60454 0
-5.47229 6.07851 0
-2.35299 3.27809 0
-0.490683 0.826853 0
0 0 0
      </DataArray> 
    </PointData>
    <CellData>
    </CellData>
  </Piece>
  </UnstructuredGrid>
</VTKFile>
