<?xml version="1.0"?>
<VTKFile type="UnstructuredGrid">
  <UnstructuredGrid>
  <Piece NumberOfPoints="13"  NumberOfCells="28">
    <Points>
      <DataArray type="Float64" NumberOfComponents="3" format="ascii">
0 0 0
3.11638 1.07703 0
4.82292 3.85873 0
5.02883 7.0396 0
3.95908 9.93274 0
2.4852 12.5766 0
1.57496 13.2443 0
1.59346 12.133 0
3.03068 9.59333 0
4.0575 6.9537 0
3.90129 4.1523 0
2.53965 1.80159 0
0 1 0
      </DataArray>
    </Points>
    <Cells>
      <DataArray type="Int32" Name="connectivity" format="ascii">
0 1
1 2
2 3
3 4
4 5
5 6
0 12
0 11
1 11
1 10
2 10
2 9
3 9
3 8
4 8
4 7
5 7
7 6
11 12
11 10
10 9
8 9
7 8
12 1
11 2
10 3
9 4
8 5
      </DataArray>
      <DataArray type="Int32" Name="offsets" format="ascii">
2
4
6
8
10
12
14
16
18
20
22
24
26
28
30
32
34
36
38
40
42
44
46
48
50
52
54
56
      </DataArray>
      <DataArray type="UInt8" Name="types" format="ascii">
4
4
4
4
4
4
4
4
4
4
4
4
4
4
4
4
4
4
4
4
4
4
4
4
4
4
4
4
      </DataArray>
    </Cells>
    <PointData>
      <DataArray type="Float64" NumberOfComponents="3" Name="Displacement" format="ascii">
0 0 0
0.116382 1.07703 0
-1.17708 3.85873 0
-3.97117 7.0396 0
-8.04092 9.93274 0
-12.5148 12.5766 0
-14.425 12.7443 0
-13.4065 11.133 0
-8.96932 8.59333 0
-4.9425 5.9537 0
-2.09871 3.1523 0
-0.460351 0.801593 0
0 0 0
      </DataArray> 
    </PointData>
    <CellData>
    </CellData>
  </Piece>
  </UnstructuredGrid>
</VTKFile>
