<?xml version="1.0"?>
<VTKFile type="UnstructuredGrid">
  <UnstructuredGrid>
  <Piece NumberOfPoints="13"  NumberOfCells="28">
    <Points>
      <DataArray type="Float64" NumberOfComponents="3" format="ascii">
0 0 0
3.12011 0.656974 0
5.7242 2.46759 0
7.57264 5.00078 0
8.51868 7.91527 0
9.05245 10.8835 0
8.77092 11.972 0
8.07926 11.1036 0
7.57532 8.21997 0
6.71397 5.48411 0
5.03707 3.17297 0
2.73499 1.55446 0
0 1 0
      </DataArray>
    </Points>
    <Cells>
      <DataArray type="Int32" Name="connectivity" format="ascii">
0 1
1 2
2 3
3 4
4 5
5 6
0 12
0 11
1 11
1 10
2 10
2 9
3 9
3 8
4 8
4 7
5 7
7 6
11 12
11 10
10 9
8 9
7 8
12 1
11 2
10 3
9 4
8 5
      </DataArray>
      <DataArray type="Int32" Name="offsets" format="ascii">
2
4
6
8
10
12
14
16
18
20
22
24
26
28
30
32
34
36
38
40
42
44
46
48
50
52
54
56
      </DataArray>
      <DataArray type="UInt8" Name="types" format="ascii">
4
4
4
4
4
4
4
4
4
4
4
4
4
4
4
4
4
4
4
4
4
4
4
4
4
4
4
4
      </DataArray>
    </Cells>
    <PointData>
      <DataArray type="Float64" NumberOfComponents="3" Name="Displacement" format="ascii">
0 0 0
0.120109 0.656974 0
-0.275804 2.46759 0
-1.42736 5.00078 0
-3.48132 7.91527 0
-5.94755 10.8835 0
-7.22908 11.472 0
-6.92074 10.1036 0
-4.42468 7.21997 0
-2.28603 4.48411 0
-0.962926 2.17297 0
-0.265013 0.554457 0
0 0 0
      </DataArray> 
    </PointData>
    <CellData>
    </CellData>
  </Piece>
  </UnstructuredGrid>
</VTKFile>
