<?xml version="1.0"?>
<VTKFile type="UnstructuredGrid">
  <UnstructuredGrid>
  <Piece NumberOfPoints="13"  NumberOfCells="28">
    <Points>
      <DataArray type="Float64" NumberOfComponents="3" format="ascii">
0 0 0
2.97914 0.994054 0
-0.0312006 0.995121 0
-3.04056 0.984021 0
-6.0559 1.00752 0
-9.07066 1.02641 0
-10.075 0.521162 0
-9.06398 0.0290375 0
-6.04944 0.00766777 0
-3.03562 -0.0151404 0
-0.0281679 -0.00347665 0
2.98079 0.011102 0
0 1 0
      </DataArray>
    </Points>
    <Cells>
      <DataArray type="Int32" Name="connectivity" format="ascii">
0 1
1 2
2 3
3 4
4 5
5 6
0 12
0 11
1 11
1 10
2 10
2 9
3 9
3 8
4 8
4 7
5 7
7 6
11 12
11 10
10 9
8 9
7 8
12 1
11 2
10 3
9 4
8 5
      </DataArray>
      <DataArray type="Int32" Name="offsets" format="ascii">
2
4
6
8
10
12
14
16
18
20
22
24
26
28
30
32
34
36
38
40
42
44
46
48
50
52
54
56
      </DataArray>
      <DataArray type="UInt8" Name="types" format="ascii">
4
4
4
4
4
4
4
4
4
4
4
4
4
4
4
4
4
4
4
4
4
4
4
4
4
4
4
4
      </DataArray>
    </Cells>
    <PointData>
      <DataArray type="Float64" NumberOfComponents="3" Name="Displacement" format="ascii">
0 0 0
-0.0208616 0.994054 0
-6.0312 0.995121 0
-12.0406 0.984021 0
-18.0559 1.00752 0
-24.0707 1.02641 0
-26.075 0.0211617 0
-24.064 -0.970962 0
-18.0494 -0.992332 0
-12.0356 -1.01514 0
-6.02817 -1.00348 0
-0.0192149 -0.988898 0
0 0 0
      </DataArray> 
    </PointData>
    <CellData>
    </CellData>
  </Piece>
  </UnstructuredGrid>
</VTKFile>
