<?xml version="1.0"?>
<VTKFile type="UnstructuredGrid">
  <UnstructuredGrid>
  <Piece NumberOfPoints="13"  NumberOfCells="28">
    <Points>
      <DataArray type="Float64" NumberOfComponents="3" format="ascii">
0 0 0
2.99862 0.00446498 0
5.99708 0.0183426 0
8.99532 0.0406159 0
11.9904 0.0866247 0
14.9848 0.135766 0
15.9765 0.647317 0
14.9738 1.13658 0
11.9801 1.08654 0
8.98681 1.04083 0
5.99109 1.01885 0
2.99553 1.00499 0
0 1 0
      </DataArray>
    </Points>
    <Cells>
      <DataArray type="Int32" Name="connectivity" format="ascii">
0 1
1 2
2 3
3 4
4 5
5 6
0 12
0 11
1 11
1 10
2 10
2 9
3 9
3 8
4 8
4 7
5 7
7 6
11 12
11 10
10 9
8 9
7 8
12 1
11 2
10 3
9 4
8 5
      </DataArray>
      <DataArray type="Int32" Name="offsets" format="ascii">
2
4
6
8
10
12
14
16
18
20
22
24
26
28
30
32
34
36
38
40
42
44
46
48
50
52
54
56
      </DataArray>
      <DataArray type="UInt8" Name="types" format="ascii">
4
4
4
4
4
4
4
4
4
4
4
4
4
4
4
4
4
4
4
4
4
4
4
4
4
4
4
4
      </DataArray>
    </Cells>
    <PointData>
      <DataArray type="Float64" NumberOfComponents="3" Name="Displacement" format="ascii">
0 0 0
-0.00137533 0.00446498 0
-0.00291965 0.0183426 0
-0.00468457 0.0406159 0
-0.00963223 0.0866247 0
-0.0151618 0.135766 0
-0.0234719 0.147317 0
-0.0262368 0.136576 0
-0.019922 0.086536 0
-0.0131859 0.0408267 0
-0.00891123 0.0188535 0
-0.00447114 0.00499095 0
0 0 0
      </DataArray> 
    </PointData>
    <CellData>
    </CellData>
  </Piece>
  </UnstructuredGrid>
</VTKFile>
