<?xml version="1.0"?>
<VTKFile type="UnstructuredGrid">
  <UnstructuredGrid>
  <Piece NumberOfPoints="13"  NumberOfCells="28">
    <Points>
      <DataArray type="Float64" NumberOfComponents="3" format="ascii">
0 0 0
3.11827 0.629351 0
5.76174 2.37007 0
7.7011 4.82838 0
8.78571 7.69193 0
9.47123 10.628 0
9.24544 11.7289 0
8.51029 10.897 0
7.85772 8.04161 0
6.86235 5.34725 0
5.0963 3.09751 0
2.74741 1.53502 0
0 1 0
      </DataArray>
    </Points>
    <Cells>
      <DataArray type="Int32" Name="connectivity" format="ascii">
0 1
1 2
2 3
3 4
4 5
5 6
0 12
0 11
1 11
1 10
2 10
2 9
3 9
3 8
4 8
4 7
5 7
7 6
11 12
11 10
10 9
8 9
7 8
12 1
11 2
10 3
9 4
8 5
      </DataArray>
      <DataArray type="Int32" Name="offsets" format="ascii">
2
4
6
8
10
12
14
16
18
20
22
24
26
28
30
32
34
36
38
40
42
44
46
48
50
52
54
56
      </DataArray>
      <DataArray type="UInt8" Name="types" format="ascii">
4
4
4
4
4
4
4
4
4
4
4
4
4
4
4
4
4
4
4
4
4
4
4
4
4
4
4
4
      </DataArray>
    </Cells>
    <PointData>
      <DataArray type="Float64" NumberOfComponents="3" Name="Displacement" format="ascii">
0 0 0
0.118272 0.629351 0
-0.23826 2.37007 0
-1.2989 4.82838 0
-3.21429 7.69193 0
-5.52877 10.628 0
-6.75456 11.2289 0
-6.48971 9.89699 0
-4.14228 7.04161 0
-2.13765 4.34725 0
-0.903698 2.09751 0
-0.25259 0.535015 0
0 0 0
      </DataArray> 
    </PointData>
    <CellData>
    </CellData>
  </Piece>
  </UnstructuredGrid>
</VTKFile>
