<?xml version="1.0"?>
<VTKFile type="UnstructuredGrid">
  <UnstructuredGrid>
  <Piece NumberOfPoints="13"  NumberOfCells="28">
    <Points>
      <DataArray type="Float64" NumberOfComponents="3" format="ascii">
0 0 0
3.11068 1.15717 0
4.53669 4.11155 0
4.36724 7.29887 0
2.96212 10.0461 0
1.19157 12.5032 0
0.20886 13.06 0
0.358377 11.9579 0
2.08032 9.59925 0
3.41305 7.09891 0
3.59028 4.30183 0
2.50353 1.83068 0
0 1 0
      </DataArray>
    </Points>
    <Cells>
      <DataArray type="Int32" Name="connectivity" format="ascii">
0 1
1 2
2 3
3 4
4 5
5 6
0 12
0 11
1 11
1 10
2 10
2 9
3 9
3 8
4 8
4 7
5 7
7 6
11 12
11 10
10 9
8 9
7 8
12 1
11 2
10 3
9 4
8 5
      </DataArray>
      <DataArray type="Int32" Name="offsets" format="ascii">
2
4
6
8
10
12
14
16
18
20
22
24
26
28
30
32
34
36
38
40
42
44
46
48
50
52
54
56
      </DataArray>
      <DataArray type="UInt8" Name="types" format="ascii">
4
4
4
4
4
4
4
4
4
4
4
4
4
4
4
4
4
4
4
4
4
4
4
4
4
4
4
4
      </DataArray>
    </Cells>
    <PointData>
      <DataArray type="Float64" NumberOfComponents="3" Name="Displacement" format="ascii">
0 0 0
0.110677 1.15717 0
-1.46331 4.11155 0
-4.63276 7.29887 0
-9.03788 10.0461 0
-13.8084 12.5032 0
-15.7911 12.56 0
-14.6416 10.9579 0
-9.91968 8.59925 0
-5.58695 6.09891 0
-2.40972 3.30183 0
-0.496474 0.83068 0
0 0 0
      </DataArray> 
    </PointData>
    <CellData>
    </CellData>
  </Piece>
  </UnstructuredGrid>
</VTKFile>
