<?xml version="1.0"?>
<VTKFile type="UnstructuredGrid">
  <UnstructuredGrid>
  <Piece NumberOfPoints="13"  NumberOfCells="28">
    <Points>
      <DataArray type="Float64" NumberOfComponents="3" format="ascii">
0 0 0
2.97903 0.994089 0
-0.0314165 0.995063 0
-3.04089 0.983814 0
-6.05641 1.0075 0
-9.07134 1.02653 0
-10.0757 0.521195 0
-9.06456 0.0291827 0
-6.04985 0.00765332 0
-3.03588 -0.0153365 0
-0.0283443 -0.0035167 0
2.9807 0.011135 0
0 1 0
      </DataArray>
    </Points>
    <Cells>
      <DataArray type="Int32" Name="connectivity" format="ascii">
0 1
1 2
2 3
3 4
4 5
5 6
0 12
0 11
1 11
1 10
2 10
2 9
3 9
3 8
4 8
4 7
5 7
7 6
11 12
11 10
10 9
8 9
7 8
12 1
11 2
10 3
9 4
8 5
      </DataArray>
      <DataArray type="Int32" Name="offsets" format="ascii">
2
4
6
8
10
12
14
16
18
20
22
24
26
28
30
32
34
36
38
40
42
44
46
48
50
52
54
56
      </DataArray>
      <DataArray type="UInt8" Name="types" format="ascii">
4
4
4
4
4
4
4
4
4
4
4
4
4
4
4
4
4
4
4
4
4
4
4
4
4
4
4
4
      </DataArray>
    </Cells>
    <PointData>
      <DataArray type="Float64" NumberOfComponents="3" Name="Displacement" format="ascii">
0 0 0
-0.0209709 0.994089 0
-6.03142 0.995063 0
-12.0409 0.983814 0
-18.0564 1.0075 0
-24.0713 1.02653 0
-26.0757 0.0211954 0
-24.0646 -0.970817 0
-18.0499 -0.992347 0
-12.0359 -1.01534 0
-6.02834 -1.00352 0
-0.0193034 -0.988865 0
0 0 0
      </DataArray> 
    </PointData>
    <CellData>
    </CellData>
  </Piece>
  </UnstructuredGrid>
</VTKFile>
