<?xml version="1.0"?>
<VTKFile type="UnstructuredGrid">
  <UnstructuredGrid>
  <Piece NumberOfPoints="13"  NumberOfCells="28">
    <Points>
      <DataArray type="Float64" NumberOfComponents="3" format="ascii">
0 0 0
2.99916 0.0067122 0
5.99806 0.0272005 0
8.99657 0.0599312 0
11.9913 0.121114 0
14.9852 0.187219 0
15.974 0.703947 0
14.9689 1.18801 0
11.9762 1.12094 0
8.98409 1.06011 0
5.98923 1.02773 0
2.99459 1.00727 0
0 1 0
      </DataArray>
    </Points>
    <Cells>
      <DataArray type="Int32" Name="connectivity" format="ascii">
0 1
1 2
2 3
3 4
4 5
5 6
0 12
0 11
1 11
1 10
2 10
2 9
3 9
3 8
4 8
4 7
5 7
7 6
11 12
11 10
10 9
8 9
7 8
12 1
11 2
10 3
9 4
8 5
      </DataArray>
      <DataArray type="Int32" Name="offsets" format="ascii">
2
4
6
8
10
12
14
16
18
20
22
24
26
28
30
32
34
36
38
40
42
44
46
48
50
52
54
56
      </DataArray>
      <DataArray type="UInt8" Name="types" format="ascii">
4
4
4
4
4
4
4
4
4
4
4
4
4
4
4
4
4
4
4
4
4
4
4
4
4
4
4
4
      </DataArray>
    </Cells>
    <PointData>
      <DataArray type="Float64" NumberOfComponents="3" Name="Displacement" format="ascii">
0 0 0
-0.000840098 0.0067122 0
-0.00194286 0.0272005 0
-0.00343184 0.0599312 0
-0.00870514 0.121114 0
-0.0148454 0.187219 0
-0.0259816 0.203947 0
-0.0310672 0.188008 0
-0.0237695 0.120943 0
-0.0159067 0.060106 0
-0.0107695 0.0277252 0
-0.00541115 0.00726691 0
0 0 0
      </DataArray> 
    </PointData>
    <CellData>
    </CellData>
  </Piece>
  </UnstructuredGrid>
</VTKFile>
