<?xml version="1.0"?>
<VTKFile type="UnstructuredGrid">
  <UnstructuredGrid>
  <Piece NumberOfPoints="13"  NumberOfCells="28">
    <Points>
      <DataArray type="Float64" NumberOfComponents="3" format="ascii">
0 0 0
2.99926 1.6933e-05 0
5.99851 0.000276736 0
8.99776 0.00073816 0
11.9964 0.00542989 0
14.995 0.0099747 0
15.9942 0.510318 0
14.9948 1.01021 0
11.9962 1.00543 0
8.99759 1.00081 0
5.9984 1.00042 0
2.9992 1.00016 0
0 1 0
      </DataArray>
    </Points>
    <Cells>
      <DataArray type="Int32" Name="connectivity" format="ascii">
0 1
1 2
2 3
3 4
4 5
5 6
0 12
0 11
1 11
1 10
2 10
2 9
3 9
3 8
4 8
4 7
5 7
7 6
11 12
11 10
10 9
8 9
7 8
12 1
11 2
10 3
9 4
8 5
      </DataArray>
      <DataArray type="Int32" Name="offsets" format="ascii">
2
4
6
8
10
12
14
16
18
20
22
24
26
28
30
32
34
36
38
40
42
44
46
48
50
52
54
56
      </DataArray>
      <DataArray type="UInt8" Name="types" format="ascii">
4
4
4
4
4
4
4
4
4
4
4
4
4
4
4
4
4
4
4
4
4
4
4
4
4
4
4
4
      </DataArray>
    </Cells>
    <PointData>
      <DataArray type="Float64" NumberOfComponents="3" Name="Displacement" format="ascii">
0 0 0
-0.000739544 1.6933e-05 0
-0.00149031 0.000276736 0
-0.00223682 0.00073816 0
-0.00360833 0.00542989 0
-0.00499319 0.0099747 0
-0.00581923 0.0103175 0
-0.00521768 0.0102106 0
-0.00381809 0.00543353 0
-0.00240611 0.00081007 0
-0.00160479 0.000416266 0
-0.000797275 0.000157077 0
0 0 0
      </DataArray> 
    </PointData>
    <CellData>
    </CellData>
  </Piece>
  </UnstructuredGrid>
</VTKFile>
