<?xml version="1.0"?>
<VTKFile type="UnstructuredGrid">
  <UnstructuredGrid>
  <Piece NumberOfPoints="13"  NumberOfCells="28">
    <Points>
      <DataArray type="Float64" NumberOfComponents="3" format="ascii">
0 0 0
3.12532 0.861455 0
5.37117 3.16624 0
6.47342 6.13423 0
6.39042 9.21004 0
5.85271 12.1837 0
5.20974 13.1089 0
4.86439 12.0536 0
5.40138 9.18459 0
5.51691 6.34324 0
4.54745 3.68923 0
2.64072 1.68758 0
0 1 0
      </DataArray>
    </Points>
    <Cells>
      <DataArray type="Int32" Name="connectivity" format="ascii">
0 1
1 2
2 3
3 4
4 5
5 6
0 12
0 11
1 11
1 10
2 10
2 9
3 9
3 8
4 8
4 7
5 7
7 6
11 12
11 10
10 9
8 9
7 8
12 1
11 2
10 3
9 4
8 5
      </DataArray>
      <DataArray type="Int32" Name="offsets" format="ascii">
2
4
6
8
10
12
14
16
18
20
22
24
26
28
30
32
34
36
38
40
42
44
46
48
50
52
54
56
      </DataArray>
      <DataArray type="UInt8" Name="types" format="ascii">
4
4
4
4
4
4
4
4
4
4
4
4
4
4
4
4
4
4
4
4
4
4
4
4
4
4
4
4
      </DataArray>
    </Cells>
    <PointData>
      <DataArray type="Float64" NumberOfComponents="3" Name="Displacement" format="ascii">
0 0 0
0.125322 0.861455 0
-0.628832 3.16624 0
-2.52658 6.13423 0
-5.60958 9.21004 0
-9.14729 12.1837 0
-10.7903 12.6089 0
-10.1356 11.0536 0
-6.59862 8.18459 0
-3.48309 5.34324 0
-1.45255 2.68923 0
-0.359276 0.687578 0
0 0 0
      </DataArray> 
    </PointData>
    <CellData>
    </CellData>
  </Piece>
  </UnstructuredGrid>
</VTKFile>
