<?xml version="1.0"?>
<VTKFile type="UnstructuredGrid">
  <UnstructuredGrid>
  <Piece NumberOfPoints="13"  NumberOfCells="28">
    <Points>
      <DataArray type="Float64" NumberOfComponents="3" format="ascii">
0 0 0
2.97848 0.994263 0
-0.0324951 0.994776 0
-3.04253 0.98279 0
-6.05895 1.00741 0
-9.07473 1.02708 0
-10.0793 0.521347 0
-9.06745 0.029892 0
-6.05191 0.00757634 0
-3.03717 -0.0163091 0
-0.0292271 -0.00371303 0
2.98025 0.0112991 0
0 1 0
      </DataArray>
    </Points>
    <Cells>
      <DataArray type="Int32" Name="connectivity" format="ascii">
0 1
1 2
2 3
3 4
4 5
5 6
0 12
0 11
1 11
1 10
2 10
2 9
3 9
3 8
4 8
4 7
5 7
7 6
11 12
11 10
10 9
8 9
7 8
12 1
11 2
10 3
9 4
8 5
      </DataArray>
      <DataArray type="Int32" Name="offsets" format="ascii">
2
4
6
8
10
12
14
16
18
20
22
24
26
28
30
32
34
36
38
40
42
44
46
48
50
52
54
56
      </DataArray>
      <DataArray type="UInt8" Name="types" format="ascii">
4
4
4
4
4
4
4
4
4
4
4
4
4
4
4
4
4
4
4
4
4
4
4
4
4
4
4
4
      </DataArray>
    </Cells>
    <PointData>
      <DataArray type="Float64" NumberOfComponents="3" Name="Displacement" format="ascii">
0 0 0
-0.021517 0.994263 0
-6.0325 0.994776 0
-12.0425 0.98279 0
-18.059 1.00741 0
-24.0747 1.02708 0
-26.0793 0.0213465 0
-24.0674 -0.970108 0
-18.0519 -0.992424 0
-12.0372 -1.01631 0
-6.02923 -1.00371 0
-0.0197466 -0.988701 0
0 0 0
      </DataArray> 
    </PointData>
    <CellData>
    </CellData>
  </Piece>
  </UnstructuredGrid>
</VTKFile>
