<?xml version="1.0"?>
<VTKFile type="UnstructuredGrid">
  <UnstructuredGrid>
  <Piece NumberOfPoints="13"  NumberOfCells="28">
    <Points>
      <DataArray type="Float64" NumberOfComponents="3" format="ascii">
0 0 0
3.11738 1.06211 0
4.86914 3.81188 0
5.14101 6.98672 0
4.13487 9.90225 0
2.71855 12.5771 0
1.82318 13.2643 0
1.81729 12.153 0
3.19928 9.58313 0
4.16795 6.92142 0
3.9528 4.12304 0
2.54656 1.79501 0
0 1 0
      </DataArray>
    </Points>
    <Cells>
      <DataArray type="Int32" Name="connectivity" format="ascii">
0 1
1 2
2 3
3 4
4 5
5 6
0 12
0 11
1 11
1 10
2 10
2 9
3 9
3 8
4 8
4 7
5 7
7 6
11 12
11 10
10 9
8 9
7 8
12 1
11 2
10 3
9 4
8 5
      </DataArray>
      <DataArray type="Int32" Name="offsets" format="ascii">
2
4
6
8
10
12
14
16
18
20
22
24
26
28
30
32
34
36
38
40
42
44
46
48
50
52
54
56
      </DataArray>
      <DataArray type="UInt8" Name="types" format="ascii">
4
4
4
4
4
4
4
4
4
4
4
4
4
4
4
4
4
4
4
4
4
4
4
4
4
4
4
4
      </DataArray>
    </Cells>
    <PointData>
      <DataArray type="Float64" NumberOfComponents="3" Name="Displacement" format="ascii">
0 0 0
0.11738 1.06211 0
-1.13086 3.81188 0
-3.85899 6.98672 0
-7.86513 9.90225 0
-12.2814 12.5771 0
-14.1768 12.7643 0
-13.1827 11.153 0
-8.80072 8.58313 0
-4.83205 5.92142 0
-2.0472 3.12304 0
-0.453443 0.795009 0
0 0 0
      </DataArray> 
    </PointData>
    <CellData>
    </CellData>
  </Piece>
  </UnstructuredGrid>
</VTKFile>
