<?xml version="1.0"?>
<VTKFile type="UnstructuredGrid">
  <UnstructuredGrid>
  <Piece NumberOfPoints="13"  NumberOfCells="28">
    <Points>
      <DataArray type="Float64" NumberOfComponents="3" format="ascii">
0 0 0
3.12527 0.80019 0
5.4914 2.96136 0
6.82916 5.82192 0
7.05027 8.88762 0
6.81912 11.8989 0
6.2739 12.8842 0
5.82245 11.8699 0
6.063 8.95917 0
5.89297 6.11438 0
4.70413 3.54235 0
2.66932 1.64979 0
0 1 0
      </DataArray>
    </Points>
    <Cells>
      <DataArray type="Int32" Name="connectivity" format="ascii">
0 1
1 2
2 3
3 4
4 5
5 6
0 12
0 11
1 11
1 10
2 10
2 9
3 9
3 8
4 8
4 7
5 7
7 6
11 12
11 10
10 9
8 9
7 8
12 1
11 2
10 3
9 4
8 5
      </DataArray>
      <DataArray type="Int32" Name="offsets" format="ascii">
2
4
6
8
10
12
14
16
18
20
22
24
26
28
30
32
34
36
38
40
42
44
46
48
50
52
54
56
      </DataArray>
      <DataArray type="UInt8" Name="types" format="ascii">
4
4
4
4
4
4
4
4
4
4
4
4
4
4
4
4
4
4
4
4
4
4
4
4
4
4
4
4
      </DataArray>
    </Cells>
    <PointData>
      <DataArray type="Float64" NumberOfComponents="3" Name="Displacement" format="ascii">
0 0 0
0.125274 0.80019 0
-0.508599 2.96136 0
-2.17084 5.82192 0
-4.94973 8.88762 0
-8.18088 11.8989 0
-9.7261 12.3842 0
-9.17755 10.8699 0
-5.937 7.95917 0
-3.10703 5.11438 0
-1.29587 2.54235 0
-0.330681 0.649787 0
0 0 0
      </DataArray> 
    </PointData>
    <CellData>
    </CellData>
  </Piece>
  </UnstructuredGrid>
</VTKFile>
