<?xml version="1.0"?>
<VTKFile type="UnstructuredGrid">
  <UnstructuredGrid>
  <Piece NumberOfPoints="13"  NumberOfCells="28">
    <Points>
      <DataArray type="Float64" NumberOfComponents="3" format="ascii">
0 0 0
3.00168 0.0155277 0
6.00261 0.0617835 0
9.00228 0.135148 0
11.9959 0.252626 0
14.9874 0.382047 0
15.9655 0.918621 0
14.9513 1.38237 0
11.9624 1.25192 0
8.9744 1.13499 0
5.98276 1.0622 0
2.99136 1.01609 0
0 1 0
      </DataArray>
    </Points>
    <Cells>
      <DataArray type="Int32" Name="connectivity" format="ascii">
0 1
1 2
2 3
3 4
4 5
5 6
0 12
0 11
1 11
1 10
2 10
2 9
3 9
3 8
4 8
4 7
5 7
7 6
11 12
11 10
10 9
8 9
7 8
12 1
11 2
10 3
9 4
8 5
      </DataArray>
      <DataArray type="Int32" Name="offsets" format="ascii">
2
4
6
8
10
12
14
16
18
20
22
24
26
28
30
32
34
36
38
40
42
44
46
48
50
52
54
56
      </DataArray>
      <DataArray type="UInt8" Name="types" format="ascii">
4
4
4
4
4
4
4
4
4
4
4
4
4
4
4
4
4
4
4
4
4
4
4
4
4
4
4
4
      </DataArray>
    </Cells>
    <PointData>
      <DataArray type="Float64" NumberOfComponents="3" Name="Displacement" format="ascii">
0 0 0
0.00167987 0.0155277 0
0.00260704 0.0617835 0
0.00227684 0.135148 0
-0.00408145 0.252626 0
-0.012569 0.382047 0
-0.0344772 0.418621 0
-0.0487077 0.382366 0
-0.0376144 0.251917 0
-0.025597 0.134989 0
-0.0172415 0.0621986 0
-0.00863684 0.0160852 0
0 0 0
      </DataArray> 
    </PointData>
    <CellData>
    </CellData>
  </Piece>
  </UnstructuredGrid>
</VTKFile>
