<?xml version="1.0"?>
<VTKFile type="UnstructuredGrid">
  <UnstructuredGrid>
  <Piece NumberOfPoints="13"  NumberOfCells="28">
    <Points>
      <DataArray type="Float64" NumberOfComponents="3" format="ascii">
0 0 0
2.97912 0.994061 0
-0.0312438 0.99511 0
-3.04062 0.983979 0
-6.056 1.00751 0
-9.0708 1.02643 0
-10.0752 0.521169 0
-9.0641 0.0290667 0
-6.04953 0.00766491 0
-3.03568 -0.0151796 0
-0.0282032 -0.00348468 0
2.98077 0.0111086 0
0 1 0
      </DataArray>
    </Points>
    <Cells>
      <DataArray type="Int32" Name="connectivity" format="ascii">
0 1
1 2
2 3
3 4
4 5
5 6
0 12
0 11
1 11
1 10
2 10
2 9
3 9
3 8
4 8
4 7
5 7
7 6
11 12
11 10
10 9
8 9
7 8
12 1
11 2
10 3
9 4
8 5
      </DataArray>
      <DataArray type="Int32" Name="offsets" format="ascii">
2
4
6
8
10
12
14
16
18
20
22
24
26
28
30
32
34
36
38
40
42
44
46
48
50
52
54
56
      </DataArray>
      <DataArray type="UInt8" Name="types" format="ascii">
4
4
4
4
4
4
4
4
4
4
4
4
4
4
4
4
4
4
4
4
4
4
4
4
4
4
4
4
      </DataArray>
    </Cells>
    <PointData>
      <DataArray type="Float64" NumberOfComponents="3" Name="Displacement" format="ascii">
0 0 0
-0.0208835 0.994061 0
-6.03124 0.99511 0
-12.0406 0.983979 0
-18.056 1.00751 0
-24.0708 1.02643 0
-26.0752 0.0211685 0
-24.0641 -0.970933 0
-18.0495 -0.992335 0
-12.0357 -1.01518 0
-6.0282 -1.00348 0
-0.0192326 -0.988891 0
0 0 0
      </DataArray> 
    </PointData>
    <CellData>
    </CellData>
  </Piece>
  </UnstructuredGrid>
</VTKFile>
