<?xml version="1.0"?>
<VTKFile type="UnstructuredGrid">
  <UnstructuredGrid>
  <Piece NumberOfPoints="13"  NumberOfCells="28">
    <Points>
      <DataArray type="Float64" NumberOfComponents="3" format="ascii">
0 0 0
2.99902 0.00615941 0
5.9978 0.0250247 0
8.99624 0.0551901 0
11.991 0.112703 0
14.985 0.174697 0
15.9746 0.690159 0
14.9701 1.1755 0
11.9771 1.11255 0
8.98474 1.05538 0
5.98967 1.02555 0
2.99481 1.00671 0
0 1 0
      </DataArray>
    </Points>
    <Cells>
      <DataArray type="Int32" Name="connectivity" format="ascii">
0 1
1 2
2 3
3 4
4 5
5 6
0 12
0 11
1 11
1 10
2 10
2 9
3 9
3 8
4 8
4 7
5 7
7 6
11 12
11 10
10 9
8 9
7 8
12 1
11 2
10 3
9 4
8 5
      </DataArray>
      <DataArray type="Int32" Name="offsets" format="ascii">
2
4
6
8
10
12
14
16
18
20
22
24
26
28
30
32
34
36
38
40
42
44
46
48
50
52
54
56
      </DataArray>
      <DataArray type="UInt8" Name="types" format="ascii">
4
4
4
4
4
4
4
4
4
4
4
4
4
4
4
4
4
4
4
4
4
4
4
4
4
4
4
4
      </DataArray>
    </Cells>
    <PointData>
      <DataArray type="Float64" NumberOfComponents="3" Name="Displacement" format="ascii">
0 0 0
-0.000980308 0.00615941 0
-0.00219905 0.0250247 0
-0.00376096 0.0551901 0
-0.00896422 0.112703 0
-0.0149631 0.174697 0
-0.0254126 0.190159 0
-0.0299238 0.175497 0
-0.0228587 0.112554 0
-0.0152617 0.0553761 0
-0.0103301 0.0255484 0
-0.00518919 0.00670896 0
0 0 0
      </DataArray> 
    </PointData>
    <CellData>
    </CellData>
  </Piece>
  </UnstructuredGrid>
</VTKFile>
