<?xml version="1.0"?>
<VTKFile type="UnstructuredGrid">
  <UnstructuredGrid>
  <Piece NumberOfPoints="13"  NumberOfCells="28">
    <Points>
      <DataArray type="Float64" NumberOfComponents="3" format="ascii">
0 0 0
2.9787 0.994194 0
-0.0320638 0.99489 0
-3.04188 0.983198 0
-6.05793 1.00745 0
-9.07337 1.02686 0
-10.0779 0.521289 0
-9.06629 0.0296115 0
-6.05109 0.00760802 0
-3.03666 -0.0159217 0
-0.0288738 -0.00363528 0
2.98043 0.0112337 0
0 1 0
      </DataArray>
    </Points>
    <Cells>
      <DataArray type="Int32" Name="connectivity" format="ascii">
0 1
1 2
2 3
3 4
4 5
5 6
0 12
0 11
1 11
1 10
2 10
2 9
3 9
3 8
4 8
4 7
5 7
7 6
11 12
11 10
10 9
8 9
7 8
12 1
11 2
10 3
9 4
8 5
      </DataArray>
      <DataArray type="Int32" Name="offsets" format="ascii">
2
4
6
8
10
12
14
16
18
20
22
24
26
28
30
32
34
36
38
40
42
44
46
48
50
52
54
56
      </DataArray>
      <DataArray type="UInt8" Name="types" format="ascii">
4
4
4
4
4
4
4
4
4
4
4
4
4
4
4
4
4
4
4
4
4
4
4
4
4
4
4
4
      </DataArray>
    </Cells>
    <PointData>
      <DataArray type="Float64" NumberOfComponents="3" Name="Displacement" format="ascii">
0 0 0
-0.0212986 0.994194 0
-6.03206 0.99489 0
-12.0419 0.983198 0
-18.0579 1.00745 0
-24.0734 1.02686 0
-26.0779 0.0212894 0
-24.0663 -0.970388 0
-18.0511 -0.992392 0
-12.0367 -1.01592 0
-6.02887 -1.00364 0
-0.0195692 -0.988766 0
0 0 0
      </DataArray> 
    </PointData>
    <CellData>
    </CellData>
  </Piece>
  </UnstructuredGrid>
</VTKFile>
