<?xml version="1.0"?>
<VTKFile type="UnstructuredGrid">
  <UnstructuredGrid>
  <Piece NumberOfPoints="13"  NumberOfCells="28">
    <Points>
      <DataArray type="Float64" NumberOfComponents="3" format="ascii">
0 0 0
2.97934 0.993991 0
-0.0308119 0.995227 0
-3.03996 0.984393 0
-6.05498 1.00755 0
-9.06944 1.0262 0
-10.0737 0.521098 0
-9.06294 0.0287731 0
-6.0487 0.00769284 0
-3.03516 -0.0147861 0
-0.0278505 -0.00340392 0
2.98094 0.0110424 0
0 1 0
      </DataArray>
    </Points>
    <Cells>
      <DataArray type="Int32" Name="connectivity" format="ascii">
0 1
1 2
2 3
3 4
4 5
5 6
0 12
0 11
1 11
1 10
2 10
2 9
3 9
3 8
4 8
4 7
5 7
7 6
11 12
11 10
10 9
8 9
7 8
12 1
11 2
10 3
9 4
8 5
      </DataArray>
      <DataArray type="Int32" Name="offsets" format="ascii">
2
4
6
8
10
12
14
16
18
20
22
24
26
28
30
32
34
36
38
40
42
44
46
48
50
52
54
56
      </DataArray>
      <DataArray type="UInt8" Name="types" format="ascii">
4
4
4
4
4
4
4
4
4
4
4
4
4
4
4
4
4
4
4
4
4
4
4
4
4
4
4
4
      </DataArray>
    </Cells>
    <PointData>
      <DataArray type="Float64" NumberOfComponents="3" Name="Displacement" format="ascii">
0 0 0
-0.0206648 0.993991 0
-6.03081 0.995227 0
-12.04 0.984393 0
-18.055 1.00755 0
-24.0694 1.0262 0
-26.0737 0.0210978 0
-24.0629 -0.971227 0
-18.0487 -0.992307 0
-12.0352 -1.01479 0
-6.02785 -1.0034 0
-0.0190557 -0.988958 0
0 0 0
      </DataArray> 
    </PointData>
    <CellData>
    </CellData>
  </Piece>
  </UnstructuredGrid>
</VTKFile>
