<?xml version="1.0"?>
<VTKFile type="UnstructuredGrid">
  <UnstructuredGrid>
  <Piece NumberOfPoints="13"  NumberOfCells="28">
    <Points>
      <DataArray type="Float64" NumberOfComponents="3" format="ascii">
0 0 0
2.99969 -1.62571e-05 0
5.99937 2.12414e-05 0
8.99906 9.70181e-05 0
11.9985 0.0018546 0
14.9979 0.00353037 0
15.9976 0.503612 0
14.9979 1.00363 0
11.9985 1.00186 0
8.99904 1.00013 0
5.99936 1.00008 0
2.99968 1.00004 0
0 1 0
      </DataArray>
    </Points>
    <Cells>
      <DataArray type="Int32" Name="connectivity" format="ascii">
0 1
1 2
2 3
3 4
4 5
5 6
0 12
0 11
1 11
1 10
2 10
2 9
3 9
3 8
4 8
4 7
5 7
7 6
11 12
11 10
10 9
8 9
7 8
12 1
11 2
10 3
9 4
8 5
      </DataArray>
      <DataArray type="Int32" Name="offsets" format="ascii">
2
4
6
8
10
12
14
16
18
20
22
24
26
28
30
32
34
36
38
40
42
44
46
48
50
52
54
56
      </DataArray>
      <DataArray type="UInt8" Name="types" format="ascii">
4
4
4
4
4
4
4
4
4
4
4
4
4
4
4
4
4
4
4
4
4
4
4
4
4
4
4
4
      </DataArray>
    </Cells>
    <PointData>
      <DataArray type="Float64" NumberOfComponents="3" Name="Displacement" format="ascii">
0 0 0
-0.000311018 -1.62571e-05 0
-0.000626461 2.12414e-05 0
-0.000939826 9.70181e-05 0
-0.00150495 0.0018546 0
-0.0020722 0.00353037 0
-0.00238132 0.00361173 0
-0.00210506 0.00362733 0
-0.00153569 0.00185647 0
-0.000964522 0.000126703 0
-0.000643021 7.84792e-05 0
-0.000319327 4.12319e-05 0
0 0 0
      </DataArray> 
    </PointData>
    <CellData>
    </CellData>
  </Piece>
  </UnstructuredGrid>
</VTKFile>
