<?xml version="1.0"?>
<VTKFile type="UnstructuredGrid">
  <UnstructuredGrid>
  <Piece NumberOfPoints="13"  NumberOfCells="28">
    <Points>
      <DataArray type="Float64" NumberOfComponents="3" format="ascii">
0 0 0
2.99975 -1.52694e-05 0
5.99949 9.04113e-06 0
8.99923 6.04217e-05 0
11.9988 0.00147322 0
14.9983 0.00281761 0
15.9981 0.502878 0
14.9983 1.0029 0
11.9988 1.00147 0
8.99922 1.00008 0
5.99948 1.00006 0
2.99974 1.00003 0
0 1 0
      </DataArray>
    </Points>
    <Cells>
      <DataArray type="Int32" Name="connectivity" format="ascii">
0 1
1 2
2 3
3 4
4 5
5 6
0 12
0 11
1 11
1 10
2 10
2 9
3 9
3 8
4 8
4 7
5 7
7 6
11 12
11 10
10 9
8 9
7 8
12 1
11 2
10 3
9 4
8 5
      </DataArray>
      <DataArray type="Int32" Name="offsets" format="ascii">
2
4
6
8
10
12
14
16
18
20
22
24
26
28
30
32
34
36
38
40
42
44
46
48
50
52
54
56
      </DataArray>
      <DataArray type="UInt8" Name="types" format="ascii">
4
4
4
4
4
4
4
4
4
4
4
4
4
4
4
4
4
4
4
4
4
4
4
4
4
4
4
4
      </DataArray>
    </Cells>
    <PointData>
      <DataArray type="Float64" NumberOfComponents="3" Name="Displacement" format="ascii">
0 0 0
-0.00025338 -1.52694e-05 0
-0.000510345 9.04113e-06 0
-0.000765608 6.04217e-05 0
-0.001225 0.00147322 0
-0.0016858 0.00281761 0
-0.00193426 0.00287834 0
-0.00170713 0.00289639 0
-0.00124495 0.00147478 0
-0.000781631 8.45572e-05 0
-0.000521078 5.55461e-05 0
-0.000258761 3.14397e-05 0
0 0 0
      </DataArray> 
    </PointData>
    <CellData>
    </CellData>
  </Piece>
  </UnstructuredGrid>
</VTKFile>
