<?xml version="1.0"?>
<VTKFile type="UnstructuredGrid">
  <UnstructuredGrid>
  <Piece NumberOfPoints="13"  NumberOfCells="28">
    <Points>
      <DataArray type="Float64" NumberOfComponents="3" format="ascii">
0 0 0
2.99839 0.000734892 0
5.99673 0.00342371 0
8.99507 0.00786422 0
11.9917 0.0241861 0
14.9882 0.0407491 0
15.9854 0.543279 0
14.986 1.04133 0
11.9896 1.02418 0
8.99337 1.00804 0
5.99556 1.00377 0
2.99779 1.00108 0
0 1 0
      </DataArray>
    </Points>
    <Cells>
      <DataArray type="Int32" Name="connectivity" format="ascii">
0 1
1 2
2 3
3 4
4 5
5 6
0 12
0 11
1 11
1 10
2 10
2 9
3 9
3 8
4 8
4 7
5 7
7 6
11 12
11 10
10 9
8 9
7 8
12 1
11 2
10 3
9 4
8 5
      </DataArray>
      <DataArray type="Int32" Name="offsets" format="ascii">
2
4
6
8
10
12
14
16
18
20
22
24
26
28
30
32
34
36
38
40
42
44
46
48
50
52
54
56
      </DataArray>
      <DataArray type="UInt8" Name="types" format="ascii">
4
4
4
4
4
4
4
4
4
4
4
4
4
4
4
4
4
4
4
4
4
4
4
4
4
4
4
4
      </DataArray>
    </Cells>
    <PointData>
      <DataArray type="Float64" NumberOfComponents="3" Name="Displacement" format="ascii">
0 0 0
-0.00161291 0.000734892 0
-0.00326625 0.00342371 0
-0.00493287 0.00786422 0
-0.00828182 0.0241861 0
-0.0117513 0.0407491 0
-0.0146458 0.0432787 0
-0.0139814 0.0413296 0
-0.0103591 0.0241841 0
-0.00662974 0.00803717 0
-0.00443891 0.00377017 0
-0.00221191 0.00108333 0
0 0 0
      </DataArray> 
    </PointData>
    <CellData>
    </CellData>
  </Piece>
  </UnstructuredGrid>
</VTKFile>
