<?xml version="1.0"?>
<VTKFile type="UnstructuredGrid">
  <UnstructuredGrid>
  <Piece NumberOfPoints="13"  NumberOfCells="28">
    <Points>
      <DataArray type="Float64" NumberOfComponents="3" format="ascii">
0 0 0
2.99829 0.00113056 0
5.99652 0.00504583 0
8.99473 0.0114616 0
11.991 0.0317711 0
14.9871 0.0526095 0
15.9835 0.556167 0
14.9839 1.05326 0
11.988 1.03176 0
8.99227 1.01165 0
5.99482 1.00543 0
2.99741 1.00152 0
0 1 0
      </DataArray>
    </Points>
    <Cells>
      <DataArray type="Int32" Name="connectivity" format="ascii">
0 1
1 2
2 3
3 4
4 5
5 6
0 12
0 11
1 11
1 10
2 10
2 9
3 9
3 8
4 8
4 7
5 7
7 6
11 12
11 10
10 9
8 9
7 8
12 1
11 2
10 3
9 4
8 5
      </DataArray>
      <DataArray type="Int32" Name="offsets" format="ascii">
2
4
6
8
10
12
14
16
18
20
22
24
26
28
30
32
34
36
38
40
42
44
46
48
50
52
54
56
      </DataArray>
      <DataArray type="UInt8" Name="types" format="ascii">
4
4
4
4
4
4
4
4
4
4
4
4
4
4
4
4
4
4
4
4
4
4
4
4
4
4
4
4
      </DataArray>
    </Cells>
    <PointData>
      <DataArray type="Float64" NumberOfComponents="3" Name="Displacement" format="ascii">
0 0 0
-0.00171313 0.00113056 0
-0.00347925 0.00504583 0
-0.00527465 0.0114616 0
-0.00901517 0.0317711 0
-0.0129272 0.0526095 0
-0.0165388 0.0561674 0
-0.0161459 0.0532577 0
-0.0120115 0.0317633 0
-0.0077286 0.0116527 0
-0.00518288 0.00543447 0
-0.00258569 0.0015219 0
0 0 0
      </DataArray> 
    </PointData>
    <CellData>
    </CellData>
  </Piece>
  </UnstructuredGrid>
</VTKFile>
