<?xml version="1.0"?>
<VTKFile type="UnstructuredGrid">
  <UnstructuredGrid>
  <Piece NumberOfPoints="13"  NumberOfCells="28">
    <Points>
      <DataArray type="Float64" NumberOfComponents="3" format="ascii">
0 0 0
2.99826 0.00210156 0
5.99643 0.00895879 0
8.99453 0.020081 0
11.9902 0.0487336 0
14.9856 0.078656 0
15.9805 0.584619 0
14.9801 1.0794 0
11.9851 1.04871 0
8.99028 1.02029 0
5.99346 1.00941 0
2.99673 1.00256 0
0 1 0
      </DataArray>
    </Points>
    <Cells>
      <DataArray type="Int32" Name="connectivity" format="ascii">
0 1
1 2
2 3
3 4
4 5
5 6
0 12
0 11
1 11
1 10
2 10
2 9
3 9
3 8
4 8
4 7
5 7
7 6
11 12
11 10
10 9
8 9
7 8
12 1
11 2
10 3
9 4
8 5
      </DataArray>
      <DataArray type="Int32" Name="offsets" format="ascii">
2
4
6
8
10
12
14
16
18
20
22
24
26
28
30
32
34
36
38
40
42
44
46
48
50
52
54
56
      </DataArray>
      <DataArray type="UInt8" Name="types" format="ascii">
4
4
4
4
4
4
4
4
4
4
4
4
4
4
4
4
4
4
4
4
4
4
4
4
4
4
4
4
      </DataArray>
    </Cells>
    <PointData>
      <DataArray type="Float64" NumberOfComponents="3" Name="Displacement" format="ascii">
0 0 0
-0.00174092 0.00210156 0
-0.00356607 0.00895879 0
-0.00546765 0.020081 0
-0.00977696 0.0487336 0
-0.0143782 0.078656 0
-0.0195015 0.0846189 0
-0.0199398 0.0793977 0
-0.0149496 0.0487076 0
-0.00972089 0.0202936 0
-0.00653933 0.00940879 0
-0.00326992 0.00255663 0
0 0 0
      </DataArray> 
    </PointData>
    <CellData>
    </CellData>
  </Piece>
  </UnstructuredGrid>
</VTKFile>
