<?xml version="1.0"?>
<VTKFile type="UnstructuredGrid">
  <UnstructuredGrid>
  <Piece NumberOfPoints="13"  NumberOfCells="28">
    <Points>
      <DataArray type="Float64" NumberOfComponents="3" format="ascii">
0 0 0
3.12167 0.987101 0
5.07963 3.57456 0
5.67282 6.69882 0
4.9967 9.70587 0
3.88537 12.5193 0
3.07249 13.3014 0
2.9422 12.1982 0
4.03145 9.49181 0
4.69726 6.7362 0
4.19318 3.96946 0
2.58165 1.75838 0
0 1 0
      </DataArray>
    </Points>
    <Cells>
      <DataArray type="Int32" Name="connectivity" format="ascii">
0 1
1 2
2 3
3 4
4 5
5 6
0 12
0 11
1 11
1 10
2 10
2 9
3 9
3 8
4 8
4 7
5 7
7 6
11 12
11 10
10 9
8 9
7 8
12 1
11 2
10 3
9 4
8 5
      </DataArray>
      <DataArray type="Int32" Name="offsets" format="ascii">
2
4
6
8
10
12
14
16
18
20
22
24
26
28
30
32
34
36
38
40
42
44
46
48
50
52
54
56
      </DataArray>
      <DataArray type="UInt8" Name="types" format="ascii">
4
4
4
4
4
4
4
4
4
4
4
4
4
4
4
4
4
4
4
4
4
4
4
4
4
4
4
4
      </DataArray>
    </Cells>
    <PointData>
      <DataArray type="Float64" NumberOfComponents="3" Name="Displacement" format="ascii">
0 0 0
0.121665 0.987101 0
-0.920375 3.57456 0
-3.32718 6.69882 0
-7.0033 9.70587 0
-11.1146 12.5193 0
-12.9275 12.8014 0
-12.0578 11.1982 0
-7.96855 8.49181 0
-4.30274 5.7362 0
-1.80682 2.96946 0
-0.41835 0.758381 0
0 0 0
      </DataArray> 
    </PointData>
    <CellData>
    </CellData>
  </Piece>
  </UnstructuredGrid>
</VTKFile>
