<?xml version="1.0"?>
<VTKFile type="UnstructuredGrid">
  <UnstructuredGrid>
  <Piece NumberOfPoints="13"  NumberOfCells="28">
    <Points>
      <DataArray type="Float64" NumberOfComponents="3" format="ascii">
0 0 0
2.99905 7.14357e-05 0
5.99808 0.000557331 0
8.99712 0.00139894 0
11.9953 0.00787904 0
14.9935 0.0142117 0
15.9924 0.514783 0
14.9931 1.01452 0
11.9949 1.00788 0
8.99681 1.00149 0
5.99787 1.00074 0
2.99894 1.00025 0
0 1 0
      </DataArray>
    </Points>
    <Cells>
      <DataArray type="Int32" Name="connectivity" format="ascii">
0 1
1 2
2 3
3 4
4 5
5 6
0 12
0 11
1 11
1 10
2 10
2 9
3 9
3 8
4 8
4 7
5 7
7 6
11 12
11 10
10 9
8 9
7 8
12 1
11 2
10 3
9 4
8 5
      </DataArray>
      <DataArray type="Int32" Name="offsets" format="ascii">
2
4
6
8
10
12
14
16
18
20
22
24
26
28
30
32
34
36
38
40
42
44
46
48
50
52
54
56
      </DataArray>
      <DataArray type="UInt8" Name="types" format="ascii">
4
4
4
4
4
4
4
4
4
4
4
4
4
4
4
4
4
4
4
4
4
4
4
4
4
4
4
4
      </DataArray>
    </Cells>
    <PointData>
      <DataArray type="Float64" NumberOfComponents="3" Name="Displacement" format="ascii">
0 0 0
-0.000950942 7.14357e-05 0
-0.00191714 0.000557331 0
-0.00287888 0.00139894 0
-0.00466745 0.00787904 0
-0.00648015 0.0142117 0
-0.00762208 0.0147831 0
-0.0068966 0.0145199 0
-0.00505632 0.00788304 0
-0.00319349 0.0014926 0
-0.00213083 0.000739793 0
-0.00105899 0.000254707 0
0 0 0
      </DataArray> 
    </PointData>
    <CellData>
    </CellData>
  </Piece>
  </UnstructuredGrid>
</VTKFile>
