<?xml version="1.0"?>
<VTKFile type="UnstructuredGrid">
  <UnstructuredGrid>
  <Piece NumberOfPoints="13"  NumberOfCells="28">
    <Points>
      <DataArray type="Float64" NumberOfComponents="3" format="ascii">
0 0 0
3.11968 0.650195 0
5.73363 2.44372 0
7.60463 4.95888 0
8.58479 7.86153 0
9.15576 10.8226 0
8.88778 11.9144 0
8.18533 11.0547 0
7.64499 8.17729 0
6.7507 5.45098 0
5.05176 3.15458 0
2.73804 1.54972 0
0 1 0
      </DataArray>
    </Points>
    <Cells>
      <DataArray type="Int32" Name="connectivity" format="ascii">
0 1
1 2
2 3
3 4
4 5
5 6
0 12
0 11
1 11
1 10
2 10
2 9
3 9
3 8
4 8
4 7
5 7
7 6
11 12
11 10
10 9
8 9
7 8
12 1
11 2
10 3
9 4
8 5
      </DataArray>
      <DataArray type="Int32" Name="offsets" format="ascii">
2
4
6
8
10
12
14
16
18
20
22
24
26
28
30
32
34
36
38
40
42
44
46
48
50
52
54
56
      </DataArray>
      <DataArray type="UInt8" Name="types" format="ascii">
4
4
4
4
4
4
4
4
4
4
4
4
4
4
4
4
4
4
4
4
4
4
4
4
4
4
4
4
      </DataArray>
    </Cells>
    <PointData>
      <DataArray type="Float64" NumberOfComponents="3" Name="Displacement" format="ascii">
0 0 0
0.119684 0.650195 0
-0.266375 2.44372 0
-1.39537 4.95888 0
-3.41521 7.86153 0
-5.84424 10.8226 0
-7.11222 11.4144 0
-6.81467 10.0547 0
-4.35501 7.17729 0
-2.2493 4.45098 0
-0.948245 2.15458 0
-0.261956 0.549716 0
0 0 0
      </DataArray> 
    </PointData>
    <CellData>
    </CellData>
  </Piece>
  </UnstructuredGrid>
</VTKFile>
