<?xml version="1.0"?>
<VTKFile type="UnstructuredGrid">
  <UnstructuredGrid>
  <Piece NumberOfPoints="13"  NumberOfCells="28">
    <Points>
      <DataArray type="Float64" NumberOfComponents="3" format="ascii">
0 0 0
3.11924 0.643333 0
5.74303 2.41952 0
7.6367 4.91619 0
8.65133 7.80642 0
9.25998 10.7598 0
9.00581 11.8548 0
8.29252 11.004 0
7.71527 8.13336 0
6.78767 5.41714 0
5.06652 3.13588 0
2.74113 1.5449 0
0 1 0
      </DataArray>
    </Points>
    <Cells>
      <DataArray type="Int32" Name="connectivity" format="ascii">
0 1
1 2
2 3
3 4
4 5
5 6
0 12
0 11
1 11
1 10
2 10
2 9
3 9
3 8
4 8
4 7
5 7
7 6
11 12
11 10
10 9
8 9
7 8
12 1
11 2
10 3
9 4
8 5
      </DataArray>
      <DataArray type="Int32" Name="offsets" format="ascii">
2
4
6
8
10
12
14
16
18
20
22
24
26
28
30
32
34
36
38
40
42
44
46
48
50
52
54
56
      </DataArray>
      <DataArray type="UInt8" Name="types" format="ascii">
4
4
4
4
4
4
4
4
4
4
4
4
4
4
4
4
4
4
4
4
4
4
4
4
4
4
4
4
      </DataArray>
    </Cells>
    <PointData>
      <DataArray type="Float64" NumberOfComponents="3" Name="Displacement" format="ascii">
0 0 0
0.119236 0.643333 0
-0.256974 2.41952 0
-1.3633 4.91619 0
-3.34867 7.80642 0
-5.74002 10.7598 0
-6.99419 11.3548 0
-6.70748 10.004 0
-4.28473 7.13336 0
-2.21233 4.41714 0
-0.933481 2.13588 0
-0.258867 0.544898 0
0 0 0
      </DataArray> 
    </PointData>
    <CellData>
    </CellData>
  </Piece>
  </UnstructuredGrid>
</VTKFile>
