<?xml version="1.0"?>
<VTKFile type="UnstructuredGrid">
  <UnstructuredGrid>
  <Piece NumberOfPoints="13"  NumberOfCells="28">
    <Points>
      <DataArray type="Float64" NumberOfComponents="3" format="ascii">
0 0 0
3.12505 0.78397 0
5.52108 2.90647 0
6.91964 5.73525 0
7.22233 8.79302 0
7.07487 11.8091 0
6.55712 12.8088 0
6.0777 11.8075 0
6.23716 8.89065 0
5.99009 6.0497 0
4.7441 3.50235 0
2.67685 1.63947 0
0 1 0
      </DataArray>
    </Points>
    <Cells>
      <DataArray type="Int32" Name="connectivity" format="ascii">
0 1
1 2
2 3
3 4
4 5
5 6
0 12
0 11
1 11
1 10
2 10
2 9
3 9
3 8
4 8
4 7
5 7
7 6
11 12
11 10
10 9
8 9
7 8
12 1
11 2
10 3
9 4
8 5
      </DataArray>
      <DataArray type="Int32" Name="offsets" format="ascii">
2
4
6
8
10
12
14
16
18
20
22
24
26
28
30
32
34
36
38
40
42
44
46
48
50
52
54
56
      </DataArray>
      <DataArray type="UInt8" Name="types" format="ascii">
4
4
4
4
4
4
4
4
4
4
4
4
4
4
4
4
4
4
4
4
4
4
4
4
4
4
4
4
      </DataArray>
    </Cells>
    <PointData>
      <DataArray type="Float64" NumberOfComponents="3" Name="Displacement" format="ascii">
0 0 0
0.125048 0.78397 0
-0.47892 2.90647 0
-2.08036 5.73525 0
-4.77767 8.79302 0
-7.92513 11.8091 0
-9.44288 12.3088 0
-8.9223 10.8075 0
-5.76284 7.89065 0
-3.00991 5.0497 0
-1.2559 2.50235 0
-0.323153 0.639468 0
0 0 0
      </DataArray> 
    </PointData>
    <CellData>
    </CellData>
  </Piece>
  </UnstructuredGrid>
</VTKFile>
