<?xml version="1.0"?>
<VTKFile type="UnstructuredGrid">
  <UnstructuredGrid>
  <Piece NumberOfPoints="13"  NumberOfCells="28">
    <Points>
      <DataArray type="Float64" NumberOfComponents="3" format="ascii">
0 0 0
3.12543 0.846638 0
5.40146 3.11704 0
6.56149 6.06089 0
6.55134 9.13706 0
6.0863 12.1225 0
5.46608 13.063 0
5.09505 12.0165 0
5.56186 9.13482 0
5.6092 6.29013 0
4.5862 3.65432 0
2.64766 1.67862 0
0 1 0
      </DataArray>
    </Points>
    <Cells>
      <DataArray type="Int32" Name="connectivity" format="ascii">
0 1
1 2
2 3
3 4
4 5
5 6
0 12
0 11
1 11
1 10
2 10
2 9
3 9
3 8
4 8
4 7
5 7
7 6
11 12
11 10
10 9
8 9
7 8
12 1
11 2
10 3
9 4
8 5
      </DataArray>
      <DataArray type="Int32" Name="offsets" format="ascii">
2
4
6
8
10
12
14
16
18
20
22
24
26
28
30
32
34
36
38
40
42
44
46
48
50
52
54
56
      </DataArray>
      <DataArray type="UInt8" Name="types" format="ascii">
4
4
4
4
4
4
4
4
4
4
4
4
4
4
4
4
4
4
4
4
4
4
4
4
4
4
4
4
      </DataArray>
    </Cells>
    <PointData>
      <DataArray type="Float64" NumberOfComponents="3" Name="Displacement" format="ascii">
0 0 0
0.125425 0.846638 0
-0.598543 3.11704 0
-2.43851 6.06089 0
-5.44866 9.13706 0
-8.9137 12.1225 0
-10.5339 12.563 0
-9.90495 11.0165 0
-6.43814 8.13482 0
-3.3908 5.29013 0
-1.4138 2.65432 0
-0.35234 0.678615 0
0 0 0
      </DataArray> 
    </PointData>
    <CellData>
    </CellData>
  </Piece>
  </UnstructuredGrid>
</VTKFile>
