<?xml version="1.0"?>
<VTKFile type="UnstructuredGrid">
  <UnstructuredGrid>
  <Piece NumberOfPoints="13"  NumberOfCells="28">
    <Points>
      <DataArray type="Float64" NumberOfComponents="3" format="ascii">
0 0 0
3.11713 1.06587 0
4.85766 3.82369 0
5.113 7.00018 0
4.09078 9.9102 0
2.65988 12.5773 0
1.76071 13.2597 0
1.76098 12.1483 0
3.15696 9.58595 0
4.14033 6.92969 0
3.93997 4.13045 0
2.54481 1.79669 0
0 1 0
      </DataArray>
    </Points>
    <Cells>
      <DataArray type="Int32" Name="connectivity" format="ascii">
0 1
1 2
2 3
3 4
4 5
5 6
0 12
0 11
1 11
1 10
2 10
2 9
3 9
3 8
4 8
4 7
5 7
7 6
11 12
11 10
10 9
8 9
7 8
12 1
11 2
10 3
9 4
8 5
      </DataArray>
      <DataArray type="Int32" Name="offsets" format="ascii">
2
4
6
8
10
12
14
16
18
20
22
24
26
28
30
32
34
36
38
40
42
44
46
48
50
52
54
56
      </DataArray>
      <DataArray type="UInt8" Name="types" format="ascii">
4
4
4
4
4
4
4
4
4
4
4
4
4
4
4
4
4
4
4
4
4
4
4
4
4
4
4
4
      </DataArray>
    </Cells>
    <PointData>
      <DataArray type="Float64" NumberOfComponents="3" Name="Displacement" format="ascii">
0 0 0
0.117132 1.06587 0
-1.14234 3.82369 0
-3.887 7.00018 0
-7.90922 9.9102 0
-12.3401 12.5773 0
-14.2393 12.7597 0
-13.239 11.1483 0
-8.84304 8.58595 0
-4.85967 5.92969 0
-2.06003 3.13045 0
-0.455186 0.796693 0
0 0 0
      </DataArray> 
    </PointData>
    <CellData>
    </CellData>
  </Piece>
  </UnstructuredGrid>
</VTKFile>
