<?xml version="1.0"?>
<VTKFile type="UnstructuredGrid">
  <UnstructuredGrid>
  <Piece NumberOfPoints="13"  NumberOfCells="28">
    <Points>
      <DataArray type="Float64" NumberOfComponents="3" format="ascii">
0 0 0
2.97877 0.994173 0
-0.0319344 0.994925 0
-3.04168 0.983321 0
-6.05763 1.00746 0
-9.07296 1.02679 0
-10.0775 0.521271 0
-9.06595 0.0295266 0
-6.05084 0.00761731 0
-3.0365 -0.015805 0
-0.0287679 -0.00361175 0
2.98048 0.011214 0
0 1 0
      </DataArray>
    </Points>
    <Cells>
      <DataArray type="Int32" Name="connectivity" format="ascii">
0 1
1 2
2 3
3 4
4 5
5 6
0 12
0 11
1 11
1 10
2 10
2 9
3 9
3 8
4 8
4 7
5 7
7 6
11 12
11 10
10 9
8 9
7 8
12 1
11 2
10 3
9 4
8 5
      </DataArray>
      <DataArray type="Int32" Name="offsets" format="ascii">
2
4
6
8
10
12
14
16
18
20
22
24
26
28
30
32
34
36
38
40
42
44
46
48
50
52
54
56
      </DataArray>
      <DataArray type="UInt8" Name="types" format="ascii">
4
4
4
4
4
4
4
4
4
4
4
4
4
4
4
4
4
4
4
4
4
4
4
4
4
4
4
4
      </DataArray>
    </Cells>
    <PointData>
      <DataArray type="Float64" NumberOfComponents="3" Name="Displacement" format="ascii">
0 0 0
-0.0212331 0.994173 0
-6.03193 0.994925 0
-12.0417 0.983321 0
-18.0576 1.00746 0
-24.073 1.02679 0
-26.0775 0.0212715 0
-24.0659 -0.970473 0
-18.0508 -0.992383 0
-12.0365 -1.0158 0
-6.02877 -1.00361 0
-0.019516 -0.988786 0
0 0 0
      </DataArray> 
    </PointData>
    <CellData>
    </CellData>
  </Piece>
  </UnstructuredGrid>
</VTKFile>
