<?xml version="1.0"?>
<VTKFile type="UnstructuredGrid">
  <UnstructuredGrid>
  <Piece NumberOfPoints="13"  NumberOfCells="28">
    <Points>
      <DataArray type="Float64" NumberOfComponents="3" format="ascii">
0 0 0
3.12186 0.982949 0
5.09036 3.56131 0
5.70092 6.68181 0
5.04361 9.69288 0
3.94996 12.5132 0
3.14205 13.3003 0
3.00478 12.198 0
4.07704 9.4848 0
4.72552 6.72486 0
4.20574 3.96066 0
2.5836 1.75621 0
0 1 0
      </DataArray>
    </Points>
    <Cells>
      <DataArray type="Int32" Name="connectivity" format="ascii">
0 1
1 2
2 3
3 4
4 5
5 6
0 12
0 11
1 11
1 10
2 10
2 9
3 9
3 8
4 8
4 7
5 7
7 6
11 12
11 10
10 9
8 9
7 8
12 1
11 2
10 3
9 4
8 5
      </DataArray>
      <DataArray type="Int32" Name="offsets" format="ascii">
2
4
6
8
10
12
14
16
18
20
22
24
26
28
30
32
34
36
38
40
42
44
46
48
50
52
54
56
      </DataArray>
      <DataArray type="UInt8" Name="types" format="ascii">
4
4
4
4
4
4
4
4
4
4
4
4
4
4
4
4
4
4
4
4
4
4
4
4
4
4
4
4
      </DataArray>
    </Cells>
    <PointData>
      <DataArray type="Float64" NumberOfComponents="3" Name="Displacement" format="ascii">
0 0 0
0.121861 0.982949 0
-0.909635 3.56131 0
-3.29908 6.68181 0
-6.95639 9.69288 0
-11.05 12.5132 0
-12.858 12.8003 0
-11.9952 11.198 0
-7.92296 8.4848 0
-4.27448 5.72486 0
-1.79426 2.96066 0
-0.416397 0.75621 0
0 0 0
      </DataArray> 
    </PointData>
    <CellData>
    </CellData>
  </Piece>
  </UnstructuredGrid>
</VTKFile>
