<?xml version="1.0"?>
<VTKFile type="UnstructuredGrid">
  <UnstructuredGrid>
  <Piece NumberOfPoints="13"  NumberOfCells="28">
    <Points>
      <DataArray type="Float64" NumberOfComponents="3" format="ascii">
0 0 0
2.99845 0.00356642 0
5.99676 0.0147875 0
8.99491 0.0328493 0
11.9901 0.0725211 0
14.9849 0.114613 0
15.9778 0.624065 0
14.9759 1.11541 0
11.9818 1.07246 0
8.98801 1.03307 0
5.99191 1.01528 0
2.99595 1.00407 0
0 1 0
      </DataArray>
    </Points>
    <Cells>
      <DataArray type="Int32" Name="connectivity" format="ascii">
0 1
1 2
2 3
3 4
4 5
5 6
0 12
0 11
1 11
1 10
2 10
2 9
3 9
3 8
4 8
4 7
5 7
7 6
11 12
11 10
10 9
8 9
7 8
12 1
11 2
10 3
9 4
8 5
      </DataArray>
      <DataArray type="Int32" Name="offsets" format="ascii">
2
4
6
8
10
12
14
16
18
20
22
24
26
28
30
32
34
36
38
40
42
44
46
48
50
52
54
56
      </DataArray>
      <DataArray type="UInt8" Name="types" format="ascii">
4
4
4
4
4
4
4
4
4
4
4
4
4
4
4
4
4
4
4
4
4
4
4
4
4
4
4
4
      </DataArray>
    </Cells>
    <PointData>
      <DataArray type="Float64" NumberOfComponents="3" Name="Displacement" format="ascii">
0 0 0
-0.00155185 0.00356642 0
-0.00323883 0.0147875 0
-0.00508754 0.0328493 0
-0.00985328 0.0725211 0
-0.0150901 0.114613 0
-0.0222306 0.124065 0
-0.0240869 0.115413 0
-0.0182147 0.0724592 0
-0.0119862 0.0330665 0
-0.00808952 0.0152835 0
-0.00405477 0.00407294 0
0 0 0
      </DataArray> 
    </PointData>
    <CellData>
    </CellData>
  </Piece>
  </UnstructuredGrid>
</VTKFile>
