<?xml version="1.0"?>
<VTKFile type="UnstructuredGrid">
  <UnstructuredGrid>
  <Piece NumberOfPoints="13"  NumberOfCells="28">
    <Points>
      <DataArray type="Float64" NumberOfComponents="3" format="ascii">
0 0 0
3.11042 1.24093 0
3.99085 4.42632 0
3.24495 7.52774 0
1.41549 10.011 0
-0.710347 12.1698 0
-1.76849 12.5666 0
-1.44716 11.5005 0
0.617811 9.42592 0
2.33895 7.16238 0
3.02423 4.44 0
2.47445 1.81818 0
0 1 0
      </DataArray>
    </Points>
    <Cells>
      <DataArray type="Int32" Name="connectivity" format="ascii">
0 1
1 2
2 3
3 4
4 5
5 6
0 12
0 11
1 11
1 10
2 10
2 9
3 9
3 8
4 8
4 7
5 7
7 6
11 12
11 10
10 9
8 9
7 8
12 1
11 2
10 3
9 4
8 5
      </DataArray>
      <DataArray type="Int32" Name="offsets" format="ascii">
2
4
6
8
10
12
14
16
18
20
22
24
26
28
30
32
34
36
38
40
42
44
46
48
50
52
54
56
      </DataArray>
      <DataArray type="UInt8" Name="types" format="ascii">
4
4
4
4
4
4
4
4
4
4
4
4
4
4
4
4
4
4
4
4
4
4
4
4
4
4
4
4
      </DataArray>
    </Cells>
    <PointData>
      <DataArray type="Float64" NumberOfComponents="3" Name="Displacement" format="ascii">
0 0 0
0.11042 1.24093 0
-2.00915 4.42632 0
-5.75505 7.52774 0
-10.5845 10.011 0
-15.7103 12.1698 0
-17.7685 12.0666 0
-16.4472 10.5005 0
-11.3822 8.42592 0
-6.66105 6.16238 0
-2.97577 3.44 0
-0.525551 0.81818 0
0 0 0
      </DataArray> 
    </PointData>
    <CellData>
    </CellData>
  </Piece>
  </UnstructuredGrid>
</VTKFile>
