<?xml version="1.0"?>
<VTKFile type="UnstructuredGrid">
  <UnstructuredGrid>
  <Piece NumberOfPoints="13"  NumberOfCells="28">
    <Points>
      <DataArray type="Float64" NumberOfComponents="3" format="ascii">
0 0 0
3.12394 0.738626 0
5.59947 2.7516 0
7.16422 5.48424 0
7.69643 8.50766 0
7.78764 11.5247 0
7.35009 12.5614 0
6.79319 11.601 0
6.7209 8.67886 0
6.25611 5.85979 0
4.8527 3.38804 0
2.69778 1.60996 0
0 1 0
      </DataArray>
    </Points>
    <Cells>
      <DataArray type="Int32" Name="connectivity" format="ascii">
0 1
1 2
2 3
3 4
4 5
5 6
0 12
0 11
1 11
1 10
2 10
2 9
3 9
3 8
4 8
4 7
5 7
7 6
11 12
11 10
10 9
8 9
7 8
12 1
11 2
10 3
9 4
8 5
      </DataArray>
      <DataArray type="Int32" Name="offsets" format="ascii">
2
4
6
8
10
12
14
16
18
20
22
24
26
28
30
32
34
36
38
40
42
44
46
48
50
52
54
56
      </DataArray>
      <DataArray type="UInt8" Name="types" format="ascii">
4
4
4
4
4
4
4
4
4
4
4
4
4
4
4
4
4
4
4
4
4
4
4
4
4
4
4
4
      </DataArray>
    </Cells>
    <PointData>
      <DataArray type="Float64" NumberOfComponents="3" Name="Displacement" format="ascii">
0 0 0
0.123937 0.738626 0
-0.400529 2.7516 0
-1.83578 5.48424 0
-4.30357 8.50766 0
-7.21236 11.5247 0
-8.64991 12.0614 0
-8.20681 10.601 0
-5.2791 7.67886 0
-2.74389 4.85979 0
-1.1473 2.38804 0
-0.302219 0.609958 0
0 0 0
      </DataArray> 
    </PointData>
    <CellData>
    </CellData>
  </Piece>
  </UnstructuredGrid>
</VTKFile>
