<?xml version="1.0"?>
<VTKFile type="UnstructuredGrid">
  <UnstructuredGrid>
  <Piece NumberOfPoints="13"  NumberOfCells="28">
    <Points>
      <DataArray type="Float64" NumberOfComponents="3" format="ascii">
0 0 0
2.97975 0.993858 0
-0.0299909 0.995452 0
-3.03871 0.985185 0
-6.05304 1.00761 0
-9.06686 1.02575 0
-10.071 0.520949 0
-9.06073 0.0282013 0
-6.04714 0.00774146 0
-3.03418 -0.0140329 0
-0.0271808 -0.00324767 0
2.98128 0.010916 0
0 1 0
      </DataArray>
    </Points>
    <Cells>
      <DataArray type="Int32" Name="connectivity" format="ascii">
0 1
1 2
2 3
3 4
4 5
5 6
0 12
0 11
1 11
1 10
2 10
2 9
3 9
3 8
4 8
4 7
5 7
7 6
11 12
11 10
10 9
8 9
7 8
12 1
11 2
10 3
9 4
8 5
      </DataArray>
      <DataArray type="Int32" Name="offsets" format="ascii">
2
4
6
8
10
12
14
16
18
20
22
24
26
28
30
32
34
36
38
40
42
44
46
48
50
52
54
56
      </DataArray>
      <DataArray type="UInt8" Name="types" format="ascii">
4
4
4
4
4
4
4
4
4
4
4
4
4
4
4
4
4
4
4
4
4
4
4
4
4
4
4
4
      </DataArray>
    </Cells>
    <PointData>
      <DataArray type="Float64" NumberOfComponents="3" Name="Displacement" format="ascii">
0 0 0
-0.0202492 0.993858 0
-6.02999 0.995452 0
-12.0387 0.985185 0
-18.053 1.00761 0
-24.0669 1.02575 0
-26.071 0.0209487 0
-24.0607 -0.971799 0
-18.0471 -0.992259 0
-12.0342 -1.01403 0
-6.02718 -1.00325 0
-0.01872 -0.989084 0
0 0 0
      </DataArray> 
    </PointData>
    <CellData>
    </CellData>
  </Piece>
  </UnstructuredGrid>
</VTKFile>
