<?xml version="1.0"?>
<VTKFile type="UnstructuredGrid">
  <UnstructuredGrid>
  <Piece NumberOfPoints="13"  NumberOfCells="28">
    <Points>
      <DataArray type="Float64" NumberOfComponents="3" format="ascii">
0 0 0
3.11537 1.09165 0
4.77586 3.90463 0
4.9162 7.09004 0
3.78463 9.95988 0
2.25517 12.5724 0
1.33081 13.2206 0
1.37316 12.1098 0
2.86369 9.60072 0
3.94699 6.98385 0
3.84926 4.18058 0
2.53291 1.80777 0
0 1 0
      </DataArray>
    </Points>
    <Cells>
      <DataArray type="Int32" Name="connectivity" format="ascii">
0 1
1 2
2 3
3 4
4 5
5 6
0 12
0 11
1 11
1 10
2 10
2 9
3 9
3 8
4 8
4 7
5 7
7 6
11 12
11 10
10 9
8 9
7 8
12 1
11 2
10 3
9 4
8 5
      </DataArray>
      <DataArray type="Int32" Name="offsets" format="ascii">
2
4
6
8
10
12
14
16
18
20
22
24
26
28
30
32
34
36
38
40
42
44
46
48
50
52
54
56
      </DataArray>
      <DataArray type="UInt8" Name="types" format="ascii">
4
4
4
4
4
4
4
4
4
4
4
4
4
4
4
4
4
4
4
4
4
4
4
4
4
4
4
4
      </DataArray>
    </Cells>
    <PointData>
      <DataArray type="Float64" NumberOfComponents="3" Name="Displacement" format="ascii">
0 0 0
0.115369 1.09165 0
-1.22414 3.90463 0
-4.0838 7.09004 0
-8.21537 9.95988 0
-12.7448 12.5724 0
-14.6692 12.7206 0
-13.6268 11.1098 0
-9.13631 8.60072 0
-5.05301 5.98385 0
-2.15074 3.18058 0
-0.467086 0.807766 0
0 0 0
      </DataArray> 
    </PointData>
    <CellData>
    </CellData>
  </Piece>
  </UnstructuredGrid>
</VTKFile>
