<?xml version="1.0"?>
<VTKFile type="UnstructuredGrid">
  <UnstructuredGrid>
  <Piece NumberOfPoints="13"  NumberOfCells="28">
    <Points>
      <DataArray type="Float64" NumberOfComponents="3" format="ascii">
0 0 0
3.12126 0.995339 0
5.05806 3.60082 0
5.61667 6.73224 0
4.90341 9.73097 0
3.75724 12.5306 0
2.93464 13.3026 0
2.81818 12.1978 0
3.94089 9.50511 0
4.64088 6.75837 0
4.16806 3.98684 0
2.57778 1.76265 0
0 1 0
      </DataArray>
    </Points>
    <Cells>
      <DataArray type="Int32" Name="connectivity" format="ascii">
0 1
1 2
2 3
3 4
4 5
5 6
0 12
0 11
1 11
1 10
2 10
2 9
3 9
3 8
4 8
4 7
5 7
7 6
11 12
11 10
10 9
8 9
7 8
12 1
11 2
10 3
9 4
8 5
      </DataArray>
      <DataArray type="Int32" Name="offsets" format="ascii">
2
4
6
8
10
12
14
16
18
20
22
24
26
28
30
32
34
36
38
40
42
44
46
48
50
52
54
56
      </DataArray>
      <DataArray type="UInt8" Name="types" format="ascii">
4
4
4
4
4
4
4
4
4
4
4
4
4
4
4
4
4
4
4
4
4
4
4
4
4
4
4
4
      </DataArray>
    </Cells>
    <PointData>
      <DataArray type="Float64" NumberOfComponents="3" Name="Displacement" format="ascii">
0 0 0
0.121263 0.995339 0
-0.941943 3.60082 0
-3.38333 6.73224 0
-7.09659 9.73097 0
-11.2428 12.5306 0
-13.0654 12.8026 0
-12.1818 11.1978 0
-8.05911 8.50511 0
-4.35912 5.75837 0
-1.83194 2.98684 0
-0.422222 0.762649 0
0 0 0
      </DataArray> 
    </PointData>
    <CellData>
    </CellData>
  </Piece>
  </UnstructuredGrid>
</VTKFile>
