<?xml version="1.0"?>
<VTKFile type="UnstructuredGrid">
  <UnstructuredGrid>
  <Piece NumberOfPoints="13"  NumberOfCells="28">
    <Points>
      <DataArray type="Float64" NumberOfComponents="3" format="ascii">
0 0 0
2.97776 0.994489 0
-0.0339169 0.994408 0
-3.04471 0.981459 0
-6.06231 1.00728 0
-9.07919 1.02777 0
-10.084 0.521506 0
-9.07126 0.0307896 0
-6.05462 0.00746497 0
-3.03888 -0.0175723 0
-0.0303942 -0.00396221 0
2.97967 0.0115131 0
0 1 0
      </DataArray>
    </Points>
    <Cells>
      <DataArray type="Int32" Name="connectivity" format="ascii">
0 1
1 2
2 3
3 4
4 5
5 6
0 12
0 11
1 11
1 10
2 10
2 9
3 9
3 8
4 8
4 7
5 7
7 6
11 12
11 10
10 9
8 9
7 8
12 1
11 2
10 3
9 4
8 5
      </DataArray>
      <DataArray type="Int32" Name="offsets" format="ascii">
2
4
6
8
10
12
14
16
18
20
22
24
26
28
30
32
34
36
38
40
42
44
46
48
50
52
54
56
      </DataArray>
      <DataArray type="UInt8" Name="types" format="ascii">
4
4
4
4
4
4
4
4
4
4
4
4
4
4
4
4
4
4
4
4
4
4
4
4
4
4
4
4
      </DataArray>
    </Cells>
    <PointData>
      <DataArray type="Float64" NumberOfComponents="3" Name="Displacement" format="ascii">
0 0 0
-0.0222369 0.994489 0
-6.03392 0.994408 0
-12.0447 0.981459 0
-18.0623 1.00728 0
-24.0792 1.02777 0
-26.084 0.0215064 0
-24.0713 -0.96921 0
-18.0546 -0.992535 0
-12.0389 -1.01757 0
-6.03039 -1.00396 0
-0.0203332 -0.988487 0
0 0 0
      </DataArray> 
    </PointData>
    <CellData>
    </CellData>
  </Piece>
  </UnstructuredGrid>
</VTKFile>
