<?xml version="1.0"?>
<VTKFile type="UnstructuredGrid">
  <UnstructuredGrid>
  <Piece NumberOfPoints="13"  NumberOfCells="28">
    <Points>
      <DataArray type="Float64" NumberOfComponents="3" format="ascii">
0 0 0
2.9989 0.00566624 0
5.99758 0.023082 0
8.99595 0.0509555 0
11.9908 0.105165 0
14.9849 0.163462 0
15.9751 0.677791 0
14.9711 1.16427 0
11.978 1.10503 0
8.98532 1.05115 0
5.99007 1.0236 0
2.99501 1.00621 0
0 1 0
      </DataArray>
    </Points>
    <Cells>
      <DataArray type="Int32" Name="connectivity" format="ascii">
0 1
1 2
2 3
3 4
4 5
5 6
0 12
0 11
1 11
1 10
2 10
2 9
3 9
3 8
4 8
4 7
5 7
7 6
11 12
11 10
10 9
8 9
7 8
12 1
11 2
10 3
9 4
8 5
      </DataArray>
      <DataArray type="Int32" Name="offsets" format="ascii">
2
4
6
8
10
12
14
16
18
20
22
24
26
28
30
32
34
36
38
40
42
44
46
48
50
52
54
56
      </DataArray>
      <DataArray type="UInt8" Name="types" format="ascii">
4
4
4
4
4
4
4
4
4
4
4
4
4
4
4
4
4
4
4
4
4
4
4
4
4
4
4
4
      </DataArray>
    </Cells>
    <PointData>
      <DataArray type="Float64" NumberOfComponents="3" Name="Displacement" format="ascii">
0 0 0
-0.0011014 0.00566624 0
-0.00242027 0.023082 0
-0.00404515 0.0509555 0
-0.00918169 0.105165 0
-0.015051 0.163462 0
-0.024884 0.177791 0
-0.0288841 0.164268 0
-0.0220303 0.105035 0
-0.0146753 0.0511503 0
-0.00992984 0.0236037 0
-0.00498683 0.00621027 0
0 0 0
      </DataArray> 
    </PointData>
    <CellData>
    </CellData>
  </Piece>
  </UnstructuredGrid>
</VTKFile>
