<?xml version="1.0"?>
<VTKFile type="UnstructuredGrid">
  <UnstructuredGrid>
  <Piece NumberOfPoints="13"  NumberOfCells="28">
    <Points>
      <DataArray type="Float64" NumberOfComponents="3" format="ascii">
0 0 0
2.99994 -4.98486e-06 0
5.99988 -3.74862e-06 0
8.99982 8.45366e-07 0
11.9997 0.000315935 0
14.9996 0.000613839 0
15.9996 0.500624 0
14.9996 1.00063 0
11.9997 1.00032 0
8.99982 1.00001 0
5.99988 1.00001 0
2.99994 1.00001 0
0 1 0
      </DataArray>
    </Points>
    <Cells>
      <DataArray type="Int32" Name="connectivity" format="ascii">
0 1
1 2
2 3
3 4
4 5
5 6
0 12
0 11
1 11
1 10
2 10
2 9
3 9
3 8
4 8
4 7
5 7
7 6
11 12
11 10
10 9
8 9
7 8
12 1
11 2
10 3
9 4
8 5
      </DataArray>
      <DataArray type="Int32" Name="offsets" format="ascii">
2
4
6
8
10
12
14
16
18
20
22
24
26
28
30
32
34
36
38
40
42
44
46
48
50
52
54
56
      </DataArray>
      <DataArray type="UInt8" Name="types" format="ascii">
4
4
4
4
4
4
4
4
4
4
4
4
4
4
4
4
4
4
4
4
4
4
4
4
4
4
4
4
      </DataArray>
    </Cells>
    <PointData>
      <DataArray type="Float64" NumberOfComponents="3" Name="Displacement" format="ascii">
0 0 0
-5.89526e-05 -4.98486e-06 0
-0.000118729 -3.74862e-06 0
-0.000178107 8.45366e-07 0
-0.000284283 0.000315935 0
-0.000390557 0.000613839 0
-0.000445959 0.000624011 0
-0.000391633 0.00063203 0
-0.00028529 0.000316319 0
-0.000178914 6.42728e-06 0
-0.000119268 6.98267e-06 0
-5.92221e-05 5.79364e-06 0
0 0 0
      </DataArray> 
    </PointData>
    <CellData>
    </CellData>
  </Piece>
  </UnstructuredGrid>
</VTKFile>
