<?xml version="1.0"?>
<VTKFile type="UnstructuredGrid">
  <UnstructuredGrid>
  <Piece NumberOfPoints="13"  NumberOfCells="28">
    <Points>
      <DataArray type="Float64" NumberOfComponents="3" format="ascii">
0 0 0
2.99901 8.37143e-05 0
5.99801 0.000616722 0
8.99702 0.00153693 0
11.9952 0.00833669 0
14.9933 0.0149917 0
15.9921 0.515609 0
14.9928 1.01531 0
11.9947 1.00834 0
8.99667 1.00163 0
5.99778 1.00081 0
2.9989 1.00027 0
0 1 0
      </DataArray>
    </Points>
    <Cells>
      <DataArray type="Int32" Name="connectivity" format="ascii">
0 1
1 2
2 3
3 4
4 5
5 6
0 12
0 11
1 11
1 10
2 10
2 9
3 9
3 8
4 8
4 7
5 7
7 6
11 12
11 10
10 9
8 9
7 8
12 1
11 2
10 3
9 4
8 5
      </DataArray>
      <DataArray type="Int32" Name="offsets" format="ascii">
2
4
6
8
10
12
14
16
18
20
22
24
26
28
30
32
34
36
38
40
42
44
46
48
50
52
54
56
      </DataArray>
      <DataArray type="UInt8" Name="types" format="ascii">
4
4
4
4
4
4
4
4
4
4
4
4
4
4
4
4
4
4
4
4
4
4
4
4
4
4
4
4
      </DataArray>
    </Cells>
    <PointData>
      <DataArray type="Float64" NumberOfComponents="3" Name="Displacement" format="ascii">
0 0 0
-0.00098513 8.37143e-05 0
-0.00198624 0.000616722 0
-0.00298297 0.00153693 0
-0.00484074 0.00833669 0
-0.00672485 0.0149917 0
-0.00792332 0.0156091 0
-0.00718105 0.0153119 0
-0.00526668 0.00834071 0
-0.0033277 0.00163418 0
-0.00222057 0.000806337 0
-0.00110366 0.000274173 0
0 0 0
      </DataArray> 
    </PointData>
    <CellData>
    </CellData>
  </Piece>
  </UnstructuredGrid>
</VTKFile>
