<?xml version="1.0"?>
<VTKFile type="UnstructuredGrid">
  <UnstructuredGrid>
  <Piece NumberOfPoints="13"  NumberOfCells="28">
    <Points>
      <DataArray type="Float64" NumberOfComponents="3" format="ascii">
0 0 0
2.99882 0.000180738 0
5.99761 0.00106519 0
8.99641 0.00256761 0
11.9941 0.0114409 0
14.9918 0.0202062 0
15.9903 0.521155 0
14.9911 1.0206 0
11.9934 1.01144 0
8.99585 1.00269 0
5.99723 1.0013 0
2.99862 1.00041 0
0 1 0
      </DataArray>
    </Points>
    <Cells>
      <DataArray type="Int32" Name="connectivity" format="ascii">
0 1
1 2
2 3
3 4
4 5
5 6
0 12
0 11
1 11
1 10
2 10
2 9
3 9
3 8
4 8
4 7
5 7
7 6
11 12
11 10
10 9
8 9
7 8
12 1
11 2
10 3
9 4
8 5
      </DataArray>
      <DataArray type="Int32" Name="offsets" format="ascii">
2
4
6
8
10
12
14
16
18
20
22
24
26
28
30
32
34
36
38
40
42
44
46
48
50
52
54
56
      </DataArray>
      <DataArray type="UInt8" Name="types" format="ascii">
4
4
4
4
4
4
4
4
4
4
4
4
4
4
4
4
4
4
4
4
4
4
4
4
4
4
4
4
      </DataArray>
    </Cells>
    <PointData>
      <DataArray type="Float64" NumberOfComponents="3" Name="Displacement" format="ascii">
0 0 0
-0.00118262 0.000180738 0
-0.00238602 0.00106519 0
-0.0035863 0.00256761 0
-0.00585722 0.0114409 0
-0.0081706 0.0202062 0
-0.00973643 0.021155 0
-0.00892127 0.0205983 0
-0.00655764 0.0114447 0
-0.0041546 0.00268627 0
-0.00277405 0.00129771 0
-0.00137943 0.000414319 0
0 0 0
      </DataArray> 
    </PointData>
    <CellData>
    </CellData>
  </Piece>
  </UnstructuredGrid>
</VTKFile>
