<?xml version="1.0"?>
<VTKFile type="UnstructuredGrid">
  <UnstructuredGrid>
  <Piece NumberOfPoints="13"  NumberOfCells="28">
    <Points>
      <DataArray type="Float64" NumberOfComponents="3" format="ascii">
0 0 0
3.11283 1.12697 0
4.65376 4.01562 0
4.6312 7.20606 0
3.35197 10.0138 0
1.69137 12.5458 0
0.734664 13.1458 0
0.834512 12.0384 0
2.45087 9.60739 0
3.66887 7.05013 0
3.71599 4.24707 0
2.51687 1.82126 0
0 1 0
      </DataArray>
    </Points>
    <Cells>
      <DataArray type="Int32" Name="connectivity" format="ascii">
0 1
1 2
2 3
3 4
4 5
5 6
0 12
0 11
1 11
1 10
2 10
2 9
3 9
3 8
4 8
4 7
5 7
7 6
11 12
11 10
10 9
8 9
7 8
12 1
11 2
10 3
9 4
8 5
      </DataArray>
      <DataArray type="Int32" Name="offsets" format="ascii">
2
4
6
8
10
12
14
16
18
20
22
24
26
28
30
32
34
36
38
40
42
44
46
48
50
52
54
56
      </DataArray>
      <DataArray type="UInt8" Name="types" format="ascii">
4
4
4
4
4
4
4
4
4
4
4
4
4
4
4
4
4
4
4
4
4
4
4
4
4
4
4
4
      </DataArray>
    </Cells>
    <PointData>
      <DataArray type="Float64" NumberOfComponents="3" Name="Displacement" format="ascii">
0 0 0
0.112834 1.12697 0
-1.34624 4.01562 0
-4.3688 7.20606 0
-8.64803 10.0138 0
-13.3086 12.5458 0
-15.2653 12.6458 0
-14.1655 11.0384 0
-9.54913 8.60739 0
-5.33113 6.05013 0
-2.28401 3.24707 0
-0.483128 0.821263 0
0 0 0
      </DataArray> 
    </PointData>
    <CellData>
    </CellData>
  </Piece>
  </UnstructuredGrid>
</VTKFile>
