<?xml version="1.0"?>
<VTKFile type="UnstructuredGrid">
  <UnstructuredGrid>
  <Piece NumberOfPoints="13"  NumberOfCells="28">
    <Points>
      <DataArray type="Float64" NumberOfComponents="3" format="ascii">
0 0 0
3.12253 0.702323 0
5.65749 2.62613 0
7.35099 5.2742 0
8.06756 8.25679 0
8.35396 11.2605 0
7.98405 12.3227 0
7.36628 11.4003 0
7.10392 8.48732 0
6.46313 5.6981 0
4.93641 3.29389 0
2.71441 1.58565 0
0 1 0
      </DataArray>
    </Points>
    <Cells>
      <DataArray type="Int32" Name="connectivity" format="ascii">
0 1
1 2
2 3
3 4
4 5
5 6
0 12
0 11
1 11
1 10
2 10
2 9
3 9
3 8
4 8
4 7
5 7
7 6
11 12
11 10
10 9
8 9
7 8
12 1
11 2
10 3
9 4
8 5
      </DataArray>
      <DataArray type="Int32" Name="offsets" format="ascii">
2
4
6
8
10
12
14
16
18
20
22
24
26
28
30
32
34
36
38
40
42
44
46
48
50
52
54
56
      </DataArray>
      <DataArray type="UInt8" Name="types" format="ascii">
4
4
4
4
4
4
4
4
4
4
4
4
4
4
4
4
4
4
4
4
4
4
4
4
4
4
4
4
      </DataArray>
    </Cells>
    <PointData>
      <DataArray type="Float64" NumberOfComponents="3" Name="Displacement" format="ascii">
0 0 0
0.122528 0.702323 0
-0.34251 2.62613 0
-1.64901 5.2742 0
-3.93244 8.25679 0
-6.64604 11.2605 0
-8.01595 11.8227 0
-7.63372 10.4003 0
-4.89608 7.48732 0
-2.53687 4.6981 0
-1.06359 2.29389 0
-0.285593 0.585649 0
0 0 0
      </DataArray> 
    </PointData>
    <CellData>
    </CellData>
  </Piece>
  </UnstructuredGrid>
</VTKFile>
