<?xml version="1.0"?>
<VTKFile type="UnstructuredGrid">
  <UnstructuredGrid>
  <Piece NumberOfPoints="13"  NumberOfCells="28">
    <Points>
      <DataArray type="Float64" NumberOfComponents="3" format="ascii">
0 0 0
3.10791 1.22554 0
4.17019 4.34772 0
3.59493 7.48745 0
1.87856 10.0513 0
-0.155452 12.2967 0
-1.19554 12.7384 0
-0.920589 11.6598 0
1.0552 9.50352 0
2.67214 7.16979 0
3.2072 4.41704 0
2.47689 1.83442 0
0 1 0
      </DataArray>
    </Points>
    <Cells>
      <DataArray type="Int32" Name="connectivity" format="ascii">
0 1
1 2
2 3
3 4
4 5
5 6
0 12
0 11
1 11
1 10
2 10
2 9
3 9
3 8
4 8
4 7
5 7
7 6
11 12
11 10
10 9
8 9
7 8
12 1
11 2
10 3
9 4
8 5
      </DataArray>
      <DataArray type="Int32" Name="offsets" format="ascii">
2
4
6
8
10
12
14
16
18
20
22
24
26
28
30
32
34
36
38
40
42
44
46
48
50
52
54
56
      </DataArray>
      <DataArray type="UInt8" Name="types" format="ascii">
4
4
4
4
4
4
4
4
4
4
4
4
4
4
4
4
4
4
4
4
4
4
4
4
4
4
4
4
      </DataArray>
    </Cells>
    <PointData>
      <DataArray type="Float64" NumberOfComponents="3" Name="Displacement" format="ascii">
0 0 0
0.107912 1.22554 0
-1.82981 4.34772 0
-5.40507 7.48745 0
-10.1214 10.0513 0
-15.1555 12.2967 0
-17.1955 12.2384 0
-15.9206 10.6598 0
-10.9448 8.50352 0
-6.32786 6.16979 0
-2.7928 3.41704 0
-0.523109 0.834423 0
0 0 0
      </DataArray> 
    </PointData>
    <CellData>
    </CellData>
  </Piece>
  </UnstructuredGrid>
</VTKFile>
