<?xml version="1.0"?>
<VTKFile type="UnstructuredGrid">
  <UnstructuredGrid>
  <Piece NumberOfPoints="13"  NumberOfCells="28">
    <Points>
      <DataArray type="Float64" NumberOfComponents="3" format="ascii">
0 0 0
3.11998 1.01955 0
4.9926 3.6777 0
5.44864 6.82789 0
4.62752 9.79968 0
3.38091 12.5567 0
2.53069 13.2985 0
2.45462 12.19 0
3.67377 9.5395 0
4.4729 6.82094 0
4.09254 4.03719 0
2.56641 1.77487 0
0 1 0
      </DataArray>
    </Points>
    <Cells>
      <DataArray type="Int32" Name="connectivity" format="ascii">
0 1
1 2
2 3
3 4
4 5
5 6
0 12
0 11
1 11
1 10
2 10
2 9
3 9
3 8
4 8
4 7
5 7
7 6
11 12
11 10
10 9
8 9
7 8
12 1
11 2
10 3
9 4
8 5
      </DataArray>
      <DataArray type="Int32" Name="offsets" format="ascii">
2
4
6
8
10
12
14
16
18
20
22
24
26
28
30
32
34
36
38
40
42
44
46
48
50
52
54
56
      </DataArray>
      <DataArray type="UInt8" Name="types" format="ascii">
4
4
4
4
4
4
4
4
4
4
4
4
4
4
4
4
4
4
4
4
4
4
4
4
4
4
4
4
      </DataArray>
    </Cells>
    <PointData>
      <DataArray type="Float64" NumberOfComponents="3" Name="Displacement" format="ascii">
0 0 0
0.119977 1.01955 0
-1.0074 3.6777 0
-3.55136 6.82789 0
-7.37248 9.79968 0
-11.6191 12.5567 0
-13.4693 12.7985 0
-12.5454 11.19 0
-8.32623 8.5395 0
-4.5271 5.82094 0
-1.90746 3.03719 0
-0.433585 0.774868 0
0 0 0
      </DataArray> 
    </PointData>
    <CellData>
    </CellData>
  </Piece>
  </UnstructuredGrid>
</VTKFile>
