<?xml version="1.0"?>
<VTKFile type="UnstructuredGrid">
  <UnstructuredGrid>
  <Piece NumberOfPoints="30"  NumberOfCells="85">
    <Points>
      <DataArray type="Float64" NumberOfComponents="3" format="ascii">
0 0 0
4 0 0
8 0 0
12 0 0
16 0 0
16 3 9.91256e-05
12 3 1.84877e-05
8 3 6.02183e-06
4 3 1.84877e-05
4.81253e-10 3 9.91256e-05
-0.129739 0.0419359 8
3.93695 -0.019488 8
8 -0.0106521 8
12.063 -0.019488 8
16.1297 0.0419359 8
16.0081 3.03898 8
12.0034 2.98314 8
8 2.99018 8
3.99659 2.98314 8
-0.0081457 3.03898 8
0 0 16
4 0 16
8 0 16
12 0 16
16 0 16
16 3 15.9999
12 3 16
8 3 16
4 3 16
4.81253e-10 3 15.9999
      </DataArray>
    </Points>
    <Cells>
      <DataArray type="Int32" Name="connectivity" format="ascii">
0 1
1 2
2 3
3 4
4 5
5 6
6 7
7 8
8 9
9 0
8 1
7 2
6 3
10 11
11 12
12 13
13 14
14 15
15 16
16 17
17 18
18 19
19 10
18 11
17 12
16 13
20 21
21 22
22 23
23 24
24 25
25 26
26 27
27 28
28 29
20 29
28 21
22 27
23 26
20 10
10 0
29 19
19 9
21 11
28 18
11 1
18 8
22 12
27 17
12 2
17 7
23 13
26 16
13 3
16 6
24 14
25 15
15 5
14 4
25 23
29 21
19 11
9 1
15 13
5 3
8 2
6 2
18 12
16 12
28 22
26 22
19 20
19 0
21 18
18 1
22 17
17 2
23 16
16 3
15 24
15 4
20 18
18 0
24 16
16 4
      </DataArray>
      <DataArray type="Int32" Name="offsets" format="ascii">
2
4
6
8
10
12
14
16
18
20
22
24
26
28
30
32
34
36
38
40
42
44
46
48
50
52
54
56
58
60
62
64
66
68
70
72
74
76
78
80
82
84
86
88
90
92
94
96
98
100
102
104
106
108
110
112
114
116
118
120
122
124
126
128
130
132
134
136
138
140
142
144
146
148
150
152
154
156
158
160
162
164
166
168
170
      </DataArray>
      <DataArray type="UInt8" Name="types" format="ascii">
4
4
4
4
4
4
4
4
4
4
4
4
4
4
4
4
4
4
4
4
4
4
4
4
4
4
4
4
4
4
4
4
4
4
4
4
4
4
4
4
4
4
4
4
4
4
4
4
4
4
4
4
4
4
4
4
4
4
4
4
4
4
4
4
4
4
4
4
4
4
4
4
4
4
4
4
4
4
4
4
4
4
4
4
4
      </DataArray>
    </Cells>
    <PointData>
      <DataArray type="Float64" NumberOfComponents="3" Name="Displacement" format="ascii">
0 0 0
0 0 0
0 0 0
0 0 0
0 0 0
-4.81252e-10 -1.52367e-09 9.91256e-05
1.28924e-10 -8.75002e-11 1.84877e-05
0 -6.04405e-12 6.02183e-06
-1.28924e-10 -8.75002e-11 1.84877e-05
4.81253e-10 -1.52367e-09 9.91256e-05
-0.129739 0.0419359 0
-0.0630498 -0.019488 0
0 -0.0106521 0
0.0630498 -0.019488 0
0.129739 0.0419359 0
0.0081457 0.0389827 0
0.0034086 -0.0168578 0
0 -0.00981577 0
-0.0034086 -0.0168578 0
-0.0081457 0.0389827 0
0 0 0
0 0 0
0 0 0
0 0 0
0 0 0
-4.81252e-10 -1.52367e-09 -9.91256e-05
1.28924e-10 -8.75002e-11 -1.84877e-05
0 -6.04405e-12 -6.02183e-06
-1.28924e-10 -8.75002e-11 -1.84877e-05
4.81253e-10 -1.52367e-09 -9.91256e-05
      </DataArray> 
      <DataArray type="Float64" NumberOfComponents="3" Name="Velocity" format="ascii">
0 0 0
0 0 0
0 0 0
0 0 0
0 0 0
0 0 0
0 0 0
0 0 0
0 0 0
0 0 0
0 0 0
0 0 0
0 0 0
0 0 0
0 0 0
0 0 0
0 0 0
0 0 0
0 0 0
0 0 0
0 0 0
0 0 0
0 0 0
0 0 0
0 0 0
0 0 0
0 0 0
0 0 0
0 0 0
0 0 0
      </DataArray> 
      <DataArray type="Float64" NumberOfComponents="3" Name="Acceleration" format="ascii">
0 0 0
0 0 0
0 0 0
0 0 0
0 0 0
0 0 0
0 0 0
0 0 0
0 0 0
0 0 0
0 0 0
0 0 0
0 0 0
0 0 0
0 0 0
0 0 0
0 0 0
0 0 0
0 0 0
0 0 0
0 0 0
0 0 0
0 0 0
0 0 0
0 0 0
0 0 0
0 0 0
0 0 0
0 0 0
0 0 0
      </DataArray> 
    </PointData>
    <CellData>
    </CellData>
  </Piece>
  </UnstructuredGrid>
</VTKFile>
