<?xml version="1.0"?>
<VTKFile type="UnstructuredGrid">
  <UnstructuredGrid>
  <Piece NumberOfPoints="30"  NumberOfCells="85">
    <Points>
      <DataArray type="Float64" NumberOfComponents="3" format="ascii">
0 0 0
4 0 0
8 0 0
12 0 0
16 0 0
16 3 0.000116824
12 3 2.16495e-05
8 3 7.15611e-06
4 3 2.16495e-05
6.70079e-10 3 0.000116824
-0.140122 0.0458067 8
3.93182 -0.0210416 8
8 -0.0116111 8
12.0682 -0.0210416 8
16.1401 0.0458067 8
16.0087 3.04235 8
12.0036 2.98175 8
8 2.9893 8
3.99636 2.98175 8
-0.00867983 3.04235 8
0 0 16
4 0 16
8 0 16
12 0 16
16 0 16
16 3 15.9999
12 3 16
8 3 16
4 3 16
6.70079e-10 3 15.9999
      </DataArray>
    </Points>
    <Cells>
      <DataArray type="Int32" Name="connectivity" format="ascii">
0 1
1 2
2 3
3 4
4 5
5 6
6 7
7 8
8 9
9 0
8 1
7 2
6 3
10 11
11 12
12 13
13 14
14 15
15 16
16 17
17 18
18 19
19 10
18 11
17 12
16 13
20 21
21 22
22 23
23 24
24 25
25 26
26 27
27 28
28 29
20 29
28 21
22 27
23 26
20 10
10 0
29 19
19 9
21 11
28 18
11 1
18 8
22 12
27 17
12 2
17 7
23 13
26 16
13 3
16 6
24 14
25 15
15 5
14 4
25 23
29 21
19 11
9 1
15 13
5 3
8 2
6 2
18 12
16 12
28 22
26 22
19 20
19 0
21 18
18 1
22 17
17 2
23 16
16 3
15 24
15 4
20 18
18 0
24 16
16 4
      </DataArray>
      <DataArray type="Int32" Name="offsets" format="ascii">
2
4
6
8
10
12
14
16
18
20
22
24
26
28
30
32
34
36
38
40
42
44
46
48
50
52
54
56
58
60
62
64
66
68
70
72
74
76
78
80
82
84
86
88
90
92
94
96
98
100
102
104
106
108
110
112
114
116
118
120
122
124
126
128
130
132
134
136
138
140
142
144
146
148
150
152
154
156
158
160
162
164
166
168
170
      </DataArray>
      <DataArray type="UInt8" Name="types" format="ascii">
4
4
4
4
4
4
4
4
4
4
4
4
4
4
4
4
4
4
4
4
4
4
4
4
4
4
4
4
4
4
4
4
4
4
4
4
4
4
4
4
4
4
4
4
4
4
4
4
4
4
4
4
4
4
4
4
4
4
4
4
4
4
4
4
4
4
4
4
4
4
4
4
4
4
4
4
4
4
4
4
4
4
4
4
4
      </DataArray>
    </Cells>
    <PointData>
      <DataArray type="Float64" NumberOfComponents="3" Name="Displacement" format="ascii">
0 0 0
0 0 0
0 0 0
0 0 0
0 0 0
-6.70079e-10 -2.11596e-09 0.000116824
1.80064e-10 -1.20764e-10 2.16495e-05
0 -8.53495e-12 7.15611e-06
-1.80065e-10 -1.20764e-10 2.16495e-05
6.70079e-10 -2.11596e-09 0.000116824
-0.140122 0.0458067 0
-0.0681806 -0.0210416 0
0 -0.0116111 0
0.0681806 -0.0210416 0
0.140122 0.0458067 0
0.00867983 0.0423537 0
0.00364372 -0.0182515 0
0 -0.0107004 0
-0.00364372 -0.0182515 0
-0.00867983 0.0423537 0
0 0 0
0 0 0
0 0 0
0 0 0
0 0 0
-6.70079e-10 -2.11596e-09 -0.000116824
1.80064e-10 -1.20764e-10 -2.16495e-05
0 -8.53495e-12 -7.15611e-06
-1.80065e-10 -1.20764e-10 -2.16495e-05
6.70079e-10 -2.11596e-09 -0.000116824
      </DataArray> 
      <DataArray type="Float64" NumberOfComponents="3" Name="Velocity" format="ascii">
0 0 0
0 0 0
0 0 0
0 0 0
0 0 0
0 0 0
0 0 0
0 0 0
0 0 0
0 0 0
0 0 0
0 0 0
0 0 0
0 0 0
0 0 0
0 0 0
0 0 0
0 0 0
0 0 0
0 0 0
0 0 0
0 0 0
0 0 0
0 0 0
0 0 0
0 0 0
0 0 0
0 0 0
0 0 0
0 0 0
      </DataArray> 
      <DataArray type="Float64" NumberOfComponents="3" Name="Acceleration" format="ascii">
0 0 0
0 0 0
0 0 0
0 0 0
0 0 0
0 0 0
0 0 0
0 0 0
0 0 0
0 0 0
0 0 0
0 0 0
0 0 0
0 0 0
0 0 0
0 0 0
0 0 0
0 0 0
0 0 0
0 0 0
0 0 0
0 0 0
0 0 0
0 0 0
0 0 0
0 0 0
0 0 0
0 0 0
0 0 0
0 0 0
      </DataArray> 
    </PointData>
    <CellData>
    </CellData>
  </Piece>
  </UnstructuredGrid>
</VTKFile>
