<?xml version="1.0"?>
<VTKFile type="UnstructuredGrid">
  <UnstructuredGrid>
  <Piece NumberOfPoints="30"  NumberOfCells="85">
    <Points>
      <DataArray type="Float64" NumberOfComponents="3" format="ascii">
0 0 0
4 0 0
8 0 0
12 0 0
16 0 0
16 3 7.74911e-05
12 3 1.45721e-05
8 3 4.65103e-06
4 3 1.45721e-05
2.93189e-10 3 7.74911e-05
-0.115513 0.0367623 8
3.94396 -0.0173539 8
8 -0.00936256 8
12.056 -0.0173539 8
16.1155 0.0367623 8
16.0074 3.03443 8
12.0031 2.98504 8
8 2.99137 8
3.99692 2.98504 8
-0.00738382 3.03443 8
0 0 16
4 0 16
8 0 16
12 0 16
16 0 16
16 3 15.9999
12 3 16
8 3 16
4 3 16
2.93189e-10 3 15.9999
      </DataArray>
    </Points>
    <Cells>
      <DataArray type="Int32" Name="connectivity" format="ascii">
0 1
1 2
2 3
3 4
4 5
5 6
6 7
7 8
8 9
9 0
8 1
7 2
6 3
10 11
11 12
12 13
13 14
14 15
15 16
16 17
17 18
18 19
19 10
18 11
17 12
16 13
20 21
21 22
22 23
23 24
24 25
25 26
26 27
27 28
28 29
20 29
28 21
22 27
23 26
20 10
10 0
29 19
19 9
21 11
28 18
11 1
18 8
22 12
27 17
12 2
17 7
23 13
26 16
13 3
16 6
24 14
25 15
15 5
14 4
25 23
29 21
19 11
9 1
15 13
5 3
8 2
6 2
18 12
16 12
28 22
26 22
19 20
19 0
21 18
18 1
22 17
17 2
23 16
16 3
15 24
15 4
20 18
18 0
24 16
16 4
      </DataArray>
      <DataArray type="Int32" Name="offsets" format="ascii">
2
4
6
8
10
12
14
16
18
20
22
24
26
28
30
32
34
36
38
40
42
44
46
48
50
52
54
56
58
60
62
64
66
68
70
72
74
76
78
80
82
84
86
88
90
92
94
96
98
100
102
104
106
108
110
112
114
116
118
120
122
124
126
128
130
132
134
136
138
140
142
144
146
148
150
152
154
156
158
160
162
164
166
168
170
      </DataArray>
      <DataArray type="UInt8" Name="types" format="ascii">
4
4
4
4
4
4
4
4
4
4
4
4
4
4
4
4
4
4
4
4
4
4
4
4
4
4
4
4
4
4
4
4
4
4
4
4
4
4
4
4
4
4
4
4
4
4
4
4
4
4
4
4
4
4
4
4
4
4
4
4
4
4
4
4
4
4
4
4
4
4
4
4
4
4
4
4
4
4
4
4
4
4
4
4
4
      </DataArray>
    </Cells>
    <PointData>
      <DataArray type="Float64" NumberOfComponents="3" Name="Displacement" format="ascii">
0 0 0
0 0 0
0 0 0
0 0 0
0 0 0
-2.93189e-10 -9.31373e-10 7.74911e-05
7.8213e-11 -5.39155e-11 1.45721e-05
0 -3.60556e-12 4.65103e-06
-7.8213e-11 -5.39151e-11 1.45721e-05
2.93189e-10 -9.31373e-10 7.74911e-05
-0.115513 0.0367623 0
-0.0560404 -0.0173539 0
-8.88178e-16 -0.00936256 0
0.0560404 -0.0173539 0
0.115513 0.0367623 0
0.00738382 0.0344286 0
0.00307699 -0.0149561 0
-8.88178e-16 -0.00862649 0
-0.00307699 -0.0149561 0
-0.00738382 0.0344286 0
0 0 0
0 0 0
0 0 0
0 0 0
0 0 0
-2.93189e-10 -9.31373e-10 -7.74911e-05
7.8213e-11 -5.39155e-11 -1.45721e-05
0 -3.60556e-12 -4.65103e-06
-7.82134e-11 -5.39151e-11 -1.45721e-05
2.93189e-10 -9.31372e-10 -7.74911e-05
      </DataArray> 
      <DataArray type="Float64" NumberOfComponents="3" Name="Velocity" format="ascii">
0 0 0
0 0 0
0 0 0
0 0 0
0 0 0
0 0 0
0 0 0
0 0 0
0 0 0
0 0 0
0 0 0
0 0 0
0 0 0
0 0 0
0 0 0
0 0 0
0 0 0
0 0 0
0 0 0
0 0 0
0 0 0
0 0 0
0 0 0
0 0 0
0 0 0
0 0 0
0 0 0
0 0 0
0 0 0
0 0 0
      </DataArray> 
      <DataArray type="Float64" NumberOfComponents="3" Name="Acceleration" format="ascii">
0 0 0
0 0 0
0 0 0
0 0 0
0 0 0
0 0 0
0 0 0
0 0 0
0 0 0
0 0 0
0 0 0
0 0 0
0 0 0
0 0 0
0 0 0
0 0 0
0 0 0
0 0 0
0 0 0
0 0 0
0 0 0
0 0 0
0 0 0
0 0 0
0 0 0
0 0 0
0 0 0
0 0 0
0 0 0
0 0 0
      </DataArray> 
    </PointData>
    <CellData>
    </CellData>
  </Piece>
  </UnstructuredGrid>
</VTKFile>
