<?xml version="1.0"?>
<VTKFile type="UnstructuredGrid">
  <UnstructuredGrid>
  <Piece NumberOfPoints="42"  NumberOfCells="81">
    <Points>
      <DataArray type="Float64" NumberOfComponents="3" format="ascii">
0 0 0
0.299953 -5.49713e-05 0
0.599909 -0.000203417 0
0.899867 -0.000440421 0
1.19983 -0.000761063 0
1.49979 -0.00116043 0
1.79976 -0.00163359 0
2.09972 -0.00217565 0
2.39969 -0.00278166 0
2.69967 -0.00344673 0
2.99964 -0.00416592 0
3.29962 -0.00493433 0
3.5996 -0.00574703 0
3.89958 -0.00659909 0
4.19956 -0.00748562 0
4.49955 -0.00840167 0
4.79954 -0.00934234 0
5.09953 -0.0103027 0
5.39952 -0.0112779 0
5.69952 -0.0122628 0
5.99952 -0.0132513 0
0 0.3 0
0.300049 0.299947 0
0.600096 0.299798 0
0.90014 0.299561 0
1.20018 0.29924 0
1.50022 0.298841 0
1.80026 0.298367 0
2.10029 0.297825 0
2.40032 0.297219 0
2.70035 0.296554 0
3.00038 0.295835 0
3.3004 0.295066 0
3.60042 0.294253 0
3.90044 0.293401 0
4.20046 0.292515 0
4.50047 0.291598 0
4.80048 0.290658 0
5.10049 0.289697 0
5.40049 0.288722 0
5.7005 0.287737 0
6.0005 0.286747 0
      </DataArray>
    </Points>
    <Cells>
      <DataArray type="Int32" Name="connectivity" format="ascii">
0 1
1 2
2 3
3 4
4 5
5 6
6 7
7 8
8 9
9 10
10 11
11 12
12 13
13 14
14 15
15 16
16 17
17 18
18 19
19 20
21 22
22 23
23 24
24 25
25 26
26 27
27 28
28 29
29 30
30 31
31 32
32 33
33 34
34 35
35 36
36 37
37 38
38 39
39 40
40 41
0 21
0 22
1 22
1 23
2 23
2 24
3 24
3 25
4 25
4 26
5 26
5 27
6 27
6 28
7 28
7 29
8 29
8 30
9 30
9 31
10 31
10 32
11 32
11 33
12 33
12 34
13 34
13 35
14 35
14 36
15 36
15 37
16 37
16 38
17 38
17 39
18 39
18 40
19 40
19 41
20 41
      </DataArray>
      <DataArray type="Int32" Name="offsets" format="ascii">
2
4
6
8
10
12
14
16
18
20
22
24
26
28
30
32
34
36
38
40
42
44
46
48
50
52
54
56
58
60
62
64
66
68
70
72
74
76
78
80
82
84
86
88
90
92
94
96
98
100
102
104
106
108
110
112
114
116
118
120
122
124
126
128
130
132
134
136
138
140
142
144
146
148
150
152
154
156
158
160
162
      </DataArray>
      <DataArray type="UInt8" Name="types" format="ascii">
4
4
4
4
4
4
4
4
4
4
4
4
4
4
4
4
4
4
4
4
4
4
4
4
4
4
4
4
4
4
4
4
4
4
4
4
4
4
4
4
4
4
4
4
4
4
4
4
4
4
4
4
4
4
4
4
4
4
4
4
4
4
4
4
4
4
4
4
4
4
4
4
4
4
4
4
4
4
4
4
4
      </DataArray>
    </Cells>
    <PointData>
      <DataArray type="Float64" NumberOfComponents="3" Name="Displacement" format="ascii">
0 0 0
-4.67594e-05 -5.49713e-05 0
-9.1089e-05 -0.000203417 0
-0.000133014 -0.000440421 0
-0.000172556 -0.000761063 0
-0.00020973 -0.00116043 0
-0.000244551 -0.00163359 0
-0.000277028 -0.00217565 0
-0.000307166 -0.00278166 0
-0.000334968 -0.00344673 0
-0.000360434 -0.00416592 0
-0.000383561 -0.00493433 0
-0.000404344 -0.00574703 0
-0.000422776 -0.00659909 0
-0.000438848 -0.00748562 0
-0.000452547 -0.00840167 0
-0.000463863 -0.00934234 0
-0.00047278 -0.0103027 0
-0.000479285 -0.0112779 0
-0.000483362 -0.0122628 0
-0.00048499 -0.0132513 0
0 0 0
4.91872e-05 -5.34809e-05 0
9.58838e-05 -0.000201969 0
0.000140065 -0.000439037 0
0.00018171 -0.000759764 0
0.000220801 -0.00115923 0
0.000257327 -0.0016325 0
0.000291277 -0.00217467 0
0.000322646 -0.00278081 0
0.000351431 -0.003446 0
0.000377631 -0.00416532 0
0.000401251 -0.00493384 0
0.000422295 -0.00574665 0
0.00044077 -0.00659882 0
0.000456686 -0.00748544 0
0.000470053 -0.00840158 0
0.000480885 -0.00934232 0
0.000489196 -0.0103027 0
0.000494998 -0.0112779 0
0.000498309 -0.0122629 0
0.000499144 -0.0132529 0
      </DataArray> 
    </PointData>
    <CellData>
    </CellData>
  </Piece>
  </UnstructuredGrid>
</VTKFile>
