<?xml version="1.0"?>
<VTKFile type="UnstructuredGrid">
  <UnstructuredGrid>
  <Piece NumberOfPoints="42"  NumberOfCells="81">
    <Points>
      <DataArray type="Float64" NumberOfComponents="3" format="ascii">
0 0 0
0.299965 -4.10662e-05 0
0.599932 -0.000151954 0
0.899901 -0.000328991 0
1.19987 -0.000568503 0
1.49984 -0.000866815 0
1.79982 -0.00122025 0
2.09979 -0.00162515 0
2.39977 -0.00207782 0
2.69975 -0.00257459 0
2.99973 -0.0031118 0
3.29971 -0.00368576 0
3.5997 -0.0042928 0
3.89969 -0.00492925 0
4.19967 -0.00559143 0
4.49966 -0.00627567 0
4.79966 -0.00697829 0
5.09965 -0.00769562 0
5.39964 -0.00842398 0
5.69964 -0.00915971 0
5.99964 -0.00989798 0
0 0.3 0
0.300037 0.29996 0
0.600072 0.299849 0
0.900105 0.299672 0
1.20014 0.299433 0
1.50017 0.299134 0
1.80019 0.298781 0
2.10022 0.298376 0
2.40024 0.297923 0
2.70026 0.297426 0
3.00028 0.296889 0
3.3003 0.296315 0
3.60032 0.295708 0
3.90033 0.295071 0
4.20034 0.294409 0
4.50035 0.293725 0
4.80036 0.293022 0
5.10037 0.292305 0
5.40037 0.291576 0
5.70038 0.290841 0
6.00038 0.290101 0
      </DataArray>
    </Points>
    <Cells>
      <DataArray type="Int32" Name="connectivity" format="ascii">
0 1
1 2
2 3
3 4
4 5
5 6
6 7
7 8
8 9
9 10
10 11
11 12
12 13
13 14
14 15
15 16
16 17
17 18
18 19
19 20
21 22
22 23
23 24
24 25
25 26
26 27
27 28
28 29
29 30
30 31
31 32
32 33
33 34
34 35
35 36
36 37
37 38
38 39
39 40
40 41
0 21
0 22
1 22
1 23
2 23
2 24
3 24
3 25
4 25
4 26
5 26
5 27
6 27
6 28
7 28
7 29
8 29
8 30
9 30
9 31
10 31
10 32
11 32
11 33
12 33
12 34
13 34
13 35
14 35
14 36
15 36
15 37
16 37
16 38
17 38
17 39
18 39
18 40
19 40
19 41
20 41
      </DataArray>
      <DataArray type="Int32" Name="offsets" format="ascii">
2
4
6
8
10
12
14
16
18
20
22
24
26
28
30
32
34
36
38
40
42
44
46
48
50
52
54
56
58
60
62
64
66
68
70
72
74
76
78
80
82
84
86
88
90
92
94
96
98
100
102
104
106
108
110
112
114
116
118
120
122
124
126
128
130
132
134
136
138
140
142
144
146
148
150
152
154
156
158
160
162
      </DataArray>
      <DataArray type="UInt8" Name="types" format="ascii">
4
4
4
4
4
4
4
4
4
4
4
4
4
4
4
4
4
4
4
4
4
4
4
4
4
4
4
4
4
4
4
4
4
4
4
4
4
4
4
4
4
4
4
4
4
4
4
4
4
4
4
4
4
4
4
4
4
4
4
4
4
4
4
4
4
4
4
4
4
4
4
4
4
4
4
4
4
4
4
4
4
      </DataArray>
    </Cells>
    <PointData>
      <DataArray type="Float64" NumberOfComponents="3" Name="Displacement" format="ascii">
0 0 0
-3.49234e-05 -4.10662e-05 0
-6.80261e-05 -0.000151954 0
-9.93222e-05 -0.000328991 0
-0.000128824 -0.000568503 0
-0.000156539 -0.000866815 0
-0.000182477 -0.00122025 0
-0.000206641 -0.00162515 0
-0.000229036 -0.00207782 0
-0.000249663 -0.00257459 0
-0.000268521 -0.0031118 0
-0.000285609 -0.00368576 0
-0.000300925 -0.0042928 0
-0.000314463 -0.00492925 0
-0.00032622 -0.00559143 0
-0.000336188 -0.00627567 0
-0.000344362 -0.00697829 0
-0.000350732 -0.00769562 0
-0.000355291 -0.00842398 0
-0.000358031 -0.00915971 0
-0.000358939 -0.00989798 0
0 0 0
3.67429e-05 -3.99483e-05 0
7.16312e-05 -0.00015086 0
0.000104651 -0.000327933 0
0.000135791 -0.000567492 0
0.000165041 -0.000865859 0
0.000192395 -0.00121936 0
0.000217846 -0.00162432 0
0.000241393 -0.00207706 0
0.000263033 -0.0025739 0
0.000282766 -0.00311117 0
0.000300594 -0.0036852 0
0.00031652 -0.0042923 0
0.000330548 -0.00492881 0
0.000342683 -0.00559104 0
0.000352931 -0.00627533 0
0.000361299 -0.00697799 0
0.000367796 -0.00769535 0
0.000372428 -0.00842374 0
0.000375206 -0.00915947 0
0.000376136 -0.00989888 0
      </DataArray> 
    </PointData>
    <CellData>
    </CellData>
  </Piece>
  </UnstructuredGrid>
</VTKFile>
