<?xml version="1.0"?>
<VTKFile type="UnstructuredGrid">
  <UnstructuredGrid>
  <Piece NumberOfPoints="42"  NumberOfCells="81">
    <Points>
      <DataArray type="Float64" NumberOfComponents="3" format="ascii">
0 0 0
0.299958 -4.91082e-05 0
0.599919 -0.000181717 0
0.899881 -0.000393434 0
1.19985 -0.000679865 0
1.49981 -0.00103662 0
1.79978 -0.0014593 0
2.09975 -0.00194351 0
2.39973 -0.00248486 0
2.6997 -0.00307896 0
2.99968 -0.00372142 0
3.29966 -0.00440783 0
3.59964 -0.0051338 0
3.89962 -0.00589495 0
4.19961 -0.00668687 0
4.4996 -0.00750517 0
4.79959 -0.00834545 0
5.09958 -0.00920333 0
5.39957 -0.0100744 0
5.69957 -0.0109543 0
5.99957 -0.0118372 0
0 0.3 0
0.300044 0.299952 0
0.600086 0.29982 0
0.900125 0.299608 0
1.20016 0.299321 0
1.5002 0.298964 0
1.80023 0.298542 0
2.10026 0.298057 0
2.40029 0.297516 0
2.70031 0.296922 0
3.00034 0.296279 0
3.30036 0.295593 0
3.60038 0.294867 0
3.90039 0.294105 0
4.20041 0.293313 0
4.50042 0.292495 0
4.80043 0.291655 0
5.10044 0.290797 0
5.40044 0.289926 0
5.70045 0.289046 0
6.00045 0.288161 0
      </DataArray>
    </Points>
    <Cells>
      <DataArray type="Int32" Name="connectivity" format="ascii">
0 1
1 2
2 3
3 4
4 5
5 6
6 7
7 8
8 9
9 10
10 11
11 12
12 13
13 14
14 15
15 16
16 17
17 18
18 19
19 20
21 22
22 23
23 24
24 25
25 26
26 27
27 28
28 29
29 30
30 31
31 32
32 33
33 34
34 35
35 36
36 37
37 38
38 39
39 40
40 41
0 21
0 22
1 22
1 23
2 23
2 24
3 24
3 25
4 25
4 26
5 26
5 27
6 27
6 28
7 28
7 29
8 29
8 30
9 30
9 31
10 31
10 32
11 32
11 33
12 33
12 34
13 34
13 35
14 35
14 36
15 36
15 37
16 37
16 38
17 38
17 39
18 39
18 40
19 40
19 41
20 41
      </DataArray>
      <DataArray type="Int32" Name="offsets" format="ascii">
2
4
6
8
10
12
14
16
18
20
22
24
26
28
30
32
34
36
38
40
42
44
46
48
50
52
54
56
58
60
62
64
66
68
70
72
74
76
78
80
82
84
86
88
90
92
94
96
98
100
102
104
106
108
110
112
114
116
118
120
122
124
126
128
130
132
134
136
138
140
142
144
146
148
150
152
154
156
158
160
162
      </DataArray>
      <DataArray type="UInt8" Name="types" format="ascii">
4
4
4
4
4
4
4
4
4
4
4
4
4
4
4
4
4
4
4
4
4
4
4
4
4
4
4
4
4
4
4
4
4
4
4
4
4
4
4
4
4
4
4
4
4
4
4
4
4
4
4
4
4
4
4
4
4
4
4
4
4
4
4
4
4
4
4
4
4
4
4
4
4
4
4
4
4
4
4
4
4
      </DataArray>
    </Cells>
    <PointData>
      <DataArray type="Float64" NumberOfComponents="3" Name="Displacement" format="ascii">
0 0 0
-4.1768e-05 -4.91082e-05 0
-8.13626e-05 -0.000181717 0
-0.000118804 -0.000393434 0
-0.000154109 -0.000679865 0
-0.000187291 -0.00103662 0
-0.00021836 -0.0014593 0
-0.000247323 -0.00194351 0
-0.000274186 -0.00248486 0
-0.000298951 -0.00307896 0
-0.000321617 -0.00372142 0
-0.000342182 -0.00440783 0
-0.000360643 -0.0051338 0
-0.000376992 -0.00589495 0
-0.000391224 -0.00668687 0
-0.000403328 -0.00750517 0
-0.000413295 -0.00834545 0
-0.000421115 -0.00920333 0
-0.000426774 -0.0100744 0
-0.000430262 -0.0109543 0
-0.000431562 -0.0118372 0
0 0 0
4.39398e-05 -4.77744e-05 0
8.56577e-05 -0.000180417 0
0.000125134 -0.000392186 0
0.000162352 -0.000678684 0
0.000197297 -0.00103552 0
0.000229961 -0.00145828 0
0.000260335 -0.00194259 0
0.000288415 -0.00248404 0
0.000314198 -0.00307824 0
0.000337685 -0.00372079 0
0.000358878 -0.00440729 0
0.000377781 -0.00513336 0
0.000394399 -0.00589459 0
0.000408741 -0.00668658 0
0.000420815 -0.00750495 0
0.000430631 -0.00834529 0
0.000438201 -0.00920321 0
0.000443534 -0.0100743 0
0.000446645 -0.0109542 0
0.000447546 -0.0118385 0
      </DataArray> 
    </PointData>
    <CellData>
    </CellData>
  </Piece>
  </UnstructuredGrid>
</VTKFile>
