<?xml version="1.0"?>
<VTKFile type="UnstructuredGrid">
  <UnstructuredGrid>
  <Piece NumberOfPoints="42"  NumberOfCells="81">
    <Points>
      <DataArray type="Float64" NumberOfComponents="3" format="ascii">
0 0 0
0.299997 -3.68885e-06 0
0.599994 -1.36477e-05 0
0.899991 -2.95465e-05 0
1.19999 -5.10553e-05 0
1.49999 -7.78441e-05 0
1.79998 -0.000109583 0
2.09998 -0.000145942 0
2.39998 -0.000186591 0
2.69998 -0.0002312 0
2.99998 -0.000279439 0
3.29997 -0.000330978 0
3.59997 -0.000385487 0
3.89997 -0.000442636 0
4.19997 -0.000502095 0
4.49997 -0.000563534 0
4.79997 -0.000626624 0
5.09997 -0.000691033 0
5.39997 -0.000756432 0
5.69997 -0.000822492 0
5.99997 -0.00088878 0
0 0.3 0
0.300003 0.299996 0
0.600006 0.299986 0
0.900009 0.299971 0
1.20001 0.299949 0
1.50001 0.299922 0
1.80002 0.299891 0
2.10002 0.299854 0
2.40002 0.299814 0
2.70002 0.299769 0
3.00003 0.299721 0
3.30003 0.299669 0
3.60003 0.299615 0
3.90003 0.299557 0
4.20003 0.299498 0
4.50003 0.299437 0
4.80003 0.299373 0
5.10003 0.299309 0
5.40003 0.299244 0
5.70003 0.299178 0
6.00003 0.299111 0
      </DataArray>
    </Points>
    <Cells>
      <DataArray type="Int32" Name="connectivity" format="ascii">
0 1
1 2
2 3
3 4
4 5
5 6
6 7
7 8
8 9
9 10
10 11
11 12
12 13
13 14
14 15
15 16
16 17
17 18
18 19
19 20
21 22
22 23
23 24
24 25
25 26
26 27
27 28
28 29
29 30
30 31
31 32
32 33
33 34
34 35
35 36
36 37
37 38
38 39
39 40
40 41
0 21
0 22
1 22
1 23
2 23
2 24
3 24
3 25
4 25
4 26
5 26
5 27
6 27
6 28
7 28
7 29
8 29
8 30
9 30
9 31
10 31
10 32
11 32
11 33
12 33
12 34
13 34
13 35
14 35
14 36
15 36
15 37
16 37
16 38
17 38
17 39
18 39
18 40
19 40
19 41
20 41
      </DataArray>
      <DataArray type="Int32" Name="offsets" format="ascii">
2
4
6
8
10
12
14
16
18
20
22
24
26
28
30
32
34
36
38
40
42
44
46
48
50
52
54
56
58
60
62
64
66
68
70
72
74
76
78
80
82
84
86
88
90
92
94
96
98
100
102
104
106
108
110
112
114
116
118
120
122
124
126
128
130
132
134
136
138
140
142
144
146
148
150
152
154
156
158
160
162
      </DataArray>
      <DataArray type="UInt8" Name="types" format="ascii">
4
4
4
4
4
4
4
4
4
4
4
4
4
4
4
4
4
4
4
4
4
4
4
4
4
4
4
4
4
4
4
4
4
4
4
4
4
4
4
4
4
4
4
4
4
4
4
4
4
4
4
4
4
4
4
4
4
4
4
4
4
4
4
4
4
4
4
4
4
4
4
4
4
4
4
4
4
4
4
4
4
      </DataArray>
    </Cells>
    <PointData>
      <DataArray type="Float64" NumberOfComponents="3" Name="Displacement" format="ascii">
0 0 0
-3.13509e-06 -3.68885e-06 0
-6.10531e-06 -1.36477e-05 0
-8.91079e-06 -2.95465e-05 0
-1.15516e-05 -5.10553e-05 0
-1.40278e-05 -7.78441e-05 0
-1.63396e-05 -0.000109583 0
-1.84868e-05 -0.000145942 0
-2.04696e-05 -0.000186591 0
-2.22879e-05 -0.0002312 0
-2.39418e-05 -0.000279439 0
-2.54312e-05 -0.000330978 0
-2.67562e-05 -0.000385487 0
-2.79167e-05 -0.000442636 0
-2.89126e-05 -0.000502095 0
-2.97439e-05 -0.000563534 0
-3.04105e-05 -0.000626624 0
-3.09124e-05 -0.000691033 0
-3.12495e-05 -0.000756432 0
-3.14218e-05 -0.000822492 0
-3.14291e-05 -0.00088878 0
0 0 0
3.29994e-06 -3.58736e-06 0
6.43475e-06 -1.35464e-05 0
9.4043e-06 -2.94455e-05 0
1.22085e-05 -5.09547e-05 0
1.48473e-05 -7.77439e-05 0
1.73206e-05 -0.000109483 0
1.96284e-05 -0.000145843 0
2.17707e-05 -0.000186492 0
2.37474e-05 -0.000231102 0
2.55585e-05 -0.000279341 0
2.72041e-05 -0.000330881 0
2.86842e-05 -0.00038539 0
2.99987e-05 -0.00044254 0
3.11479e-05 -0.000501999 0
3.21316e-05 -0.000563439 0
3.295e-05 -0.000626529 0
3.36031e-05 -0.000690938 0
3.4091e-05 -0.000756338 0
3.44138e-05 -0.000822398 0
3.45715e-05 -0.000888787 0
      </DataArray> 
    </PointData>
    <CellData>
    </CellData>
  </Piece>
  </UnstructuredGrid>
</VTKFile>
