<?xml version="1.0"?>
<VTKFile type="UnstructuredGrid">
  <UnstructuredGrid>
  <Piece NumberOfPoints="42"  NumberOfCells="81">
    <Points>
      <DataArray type="Float64" NumberOfComponents="3" format="ascii">
0 0 0
0.299997 -3.35351e-06 0
0.599994 -1.2407e-05 0
0.899992 -2.68605e-05 0
1.19999 -4.6414e-05 0
1.49999 -7.07674e-05 0
1.79999 -9.96209e-05 0
2.09998 -0.000132674 0
2.39998 -0.000169628 0
2.69998 -0.000210182 0
2.99998 -0.000254035 0
3.29998 -0.000300889 0
3.59998 -0.000350443 0
3.89997 -0.000402396 0
4.19997 -0.00045645 0
4.49997 -0.000512304 0
4.79997 -0.000569658 0
5.09997 -0.000628212 0
5.39997 -0.000687666 0
5.69997 -0.00074772 0
5.99997 -0.000807982 0
0 0.3 0
0.300003 0.299997 0
0.600006 0.299988 0
0.900009 0.299973 0
1.20001 0.299954 0
1.50001 0.299929 0
1.80002 0.2999 0
2.10002 0.299867 0
2.40002 0.29983 0
2.70002 0.29979 0
3.00002 0.299746 0
3.30002 0.299699 0
3.60003 0.29965 0
3.90003 0.299598 0
4.20003 0.299544 0
4.50003 0.299488 0
4.80003 0.29943 0
5.10003 0.299372 0
5.40003 0.299312 0
5.70003 0.299252 0
6.00003 0.299192 0
      </DataArray>
    </Points>
    <Cells>
      <DataArray type="Int32" Name="connectivity" format="ascii">
0 1
1 2
2 3
3 4
4 5
5 6
6 7
7 8
8 9
9 10
10 11
11 12
12 13
13 14
14 15
15 16
16 17
17 18
18 19
19 20
21 22
22 23
23 24
24 25
25 26
26 27
27 28
28 29
29 30
30 31
31 32
32 33
33 34
34 35
35 36
36 37
37 38
38 39
39 40
40 41
0 21
0 22
1 22
1 23
2 23
2 24
3 24
3 25
4 25
4 26
5 26
5 27
6 27
6 28
7 28
7 29
8 29
8 30
9 30
9 31
10 31
10 32
11 32
11 33
12 33
12 34
13 34
13 35
14 35
14 36
15 36
15 37
16 37
16 38
17 38
17 39
18 39
18 40
19 40
19 41
20 41
      </DataArray>
      <DataArray type="Int32" Name="offsets" format="ascii">
2
4
6
8
10
12
14
16
18
20
22
24
26
28
30
32
34
36
38
40
42
44
46
48
50
52
54
56
58
60
62
64
66
68
70
72
74
76
78
80
82
84
86
88
90
92
94
96
98
100
102
104
106
108
110
112
114
116
118
120
122
124
126
128
130
132
134
136
138
140
142
144
146
148
150
152
154
156
158
160
162
      </DataArray>
      <DataArray type="UInt8" Name="types" format="ascii">
4
4
4
4
4
4
4
4
4
4
4
4
4
4
4
4
4
4
4
4
4
4
4
4
4
4
4
4
4
4
4
4
4
4
4
4
4
4
4
4
4
4
4
4
4
4
4
4
4
4
4
4
4
4
4
4
4
4
4
4
4
4
4
4
4
4
4
4
4
4
4
4
4
4
4
4
4
4
4
4
4
      </DataArray>
    </Cells>
    <PointData>
      <DataArray type="Float64" NumberOfComponents="3" Name="Displacement" format="ascii">
0 0 0
-2.85007e-06 -3.35351e-06 0
-5.55026e-06 -1.2407e-05 0
-8.10065e-06 -2.68605e-05 0
-1.05013e-05 -4.6414e-05 0
-1.27523e-05 -7.07674e-05 0
-1.48538e-05 -9.96209e-05 0
-1.68056e-05 -0.000132674 0
-1.86079e-05 -0.000169628 0
-2.02607e-05 -0.000210182 0
-2.17639e-05 -0.000254035 0
-2.31176e-05 -0.000300889 0
-2.43217e-05 -0.000350443 0
-2.53762e-05 -0.000402396 0
-2.6281e-05 -0.00045645 0
-2.70362e-05 -0.000512304 0
-2.76417e-05 -0.000569658 0
-2.80974e-05 -0.000628212 0
-2.84033e-05 -0.000687666 0
-2.85593e-05 -0.00074772 0
-2.85654e-05 -0.000807982 0
0 0 0
2.99995e-06 -3.26123e-06 0
5.84979e-06 -1.23149e-05 0
8.54943e-06 -2.67686e-05 0
1.10988e-05 -4.63224e-05 0
1.34978e-05 -7.06762e-05 0
1.57464e-05 -9.95302e-05 0
1.78446e-05 -0.000132584 0
1.97923e-05 -0.000169538 0
2.15896e-05 -0.000210092 0
2.32364e-05 -0.000253946 0
2.47327e-05 -0.0003008 0
2.60786e-05 -0.000350354 0
2.72742e-05 -0.000402308 0
2.83193e-05 -0.000456363 0
2.92141e-05 -0.000512217 0
2.99587e-05 -0.000569571 0
3.0553e-05 -0.000628125 0
3.09971e-05 -0.000687579 0
3.12912e-05 -0.000747633 0
3.14351e-05 -0.000807988 0
      </DataArray> 
    </PointData>
    <CellData>
    </CellData>
  </Piece>
  </UnstructuredGrid>
</VTKFile>
