<?xml version="1.0"?>
<VTKFile type="UnstructuredGrid">
  <UnstructuredGrid>
  <Piece NumberOfPoints="42"  NumberOfCells="81">
    <Points>
      <DataArray type="Float64" NumberOfComponents="3" format="ascii">
0 0 0
0.29996 -4.72653e-05 0
0.599922 -0.000174897 0
0.899886 -0.000378666 0
1.19985 -0.000654345 0
1.49982 -0.000997705 0
1.79979 -0.00140452 0
2.09976 -0.00187055 0
2.39974 -0.00239158 0
2.69971 -0.00296338 0
2.99969 -0.00358171 0
3.29967 -0.00424235 0
3.59965 -0.00494107 0
3.89964 -0.00567364 0
4.19962 -0.00643583 0
4.49961 -0.00722341 0
4.7996 -0.00803215 0
5.0996 -0.00885782 0
5.39959 -0.00969619 0
5.69959 -0.010543 0
5.99959 -0.0113928 0
0 0.3 0
0.300042 0.299954 0
0.600082 0.299826 0
0.90012 0.299623 0
1.20016 0.299347 0
1.50019 0.299003 0
1.80022 0.298596 0
2.10025 0.29813 0
2.40028 0.297609 0
2.7003 0.297037 0
3.00033 0.296419 0
3.30035 0.295758 0
3.60036 0.295059 0
3.90038 0.294327 0
4.20039 0.293564 0
4.50041 0.292777 0
4.80041 0.291968 0
5.10042 0.291142 0
5.40043 0.290304 0
5.70043 0.289457 0
6.00043 0.288606 0
      </DataArray>
    </Points>
    <Cells>
      <DataArray type="Int32" Name="connectivity" format="ascii">
0 1
1 2
2 3
3 4
4 5
5 6
6 7
7 8
8 9
9 10
10 11
11 12
12 13
13 14
14 15
15 16
16 17
17 18
18 19
19 20
21 22
22 23
23 24
24 25
25 26
26 27
27 28
28 29
29 30
30 31
31 32
32 33
33 34
34 35
35 36
36 37
37 38
38 39
39 40
40 41
0 21
0 22
1 22
1 23
2 23
2 24
3 24
3 25
4 25
4 26
5 26
5 27
6 27
6 28
7 28
7 29
8 29
8 30
9 30
9 31
10 31
10 32
11 32
11 33
12 33
12 34
13 34
13 35
14 35
14 36
15 36
15 37
16 37
16 38
17 38
17 39
18 39
18 40
19 40
19 41
20 41
      </DataArray>
      <DataArray type="Int32" Name="offsets" format="ascii">
2
4
6
8
10
12
14
16
18
20
22
24
26
28
30
32
34
36
38
40
42
44
46
48
50
52
54
56
58
60
62
64
66
68
70
72
74
76
78
80
82
84
86
88
90
92
94
96
98
100
102
104
106
108
110
112
114
116
118
120
122
124
126
128
130
132
134
136
138
140
142
144
146
148
150
152
154
156
158
160
162
      </DataArray>
      <DataArray type="UInt8" Name="types" format="ascii">
4
4
4
4
4
4
4
4
4
4
4
4
4
4
4
4
4
4
4
4
4
4
4
4
4
4
4
4
4
4
4
4
4
4
4
4
4
4
4
4
4
4
4
4
4
4
4
4
4
4
4
4
4
4
4
4
4
4
4
4
4
4
4
4
4
4
4
4
4
4
4
4
4
4
4
4
4
4
4
4
4
      </DataArray>
    </Cells>
    <PointData>
      <DataArray type="Float64" NumberOfComponents="3" Name="Displacement" format="ascii">
0 0 0
-4.01994e-05 -4.72653e-05 0
-7.83061e-05 -0.000174897 0
-0.000114339 -0.000378666 0
-0.000148313 -0.000654345 0
-0.000180241 -0.000997705 0
-0.000210133 -0.00140452 0
-0.000237995 -0.00187055 0
-0.000263831 -0.00239158 0
-0.000287645 -0.00296338 0
-0.000309435 -0.00358171 0
-0.0003292 -0.00424235 0
-0.000346935 -0.00494107 0
-0.000362636 -0.00567364 0
-0.000376295 -0.00643583 0
-0.000387905 -0.00722341 0
-0.000397456 -0.00803215 0
-0.000404937 -0.00885782 0
-0.000410339 -0.00969619 0
-0.000413649 -0.010543 0
-0.000414852 -0.0113928 0
0 0 0
4.22906e-05 -4.5981e-05 0
8.24435e-05 -0.000173643 0
0.00012044 -0.000377461 0
0.000156266 -0.000653202 0
0.000189908 -0.000996635 0
0.000221356 -0.00140353 0
0.000250604 -0.00186965 0
0.000277647 -0.00239077 0
0.000302484 -0.00296266 0
0.000325113 -0.00358108 0
0.000345539 -0.00424181 0
0.000363763 -0.00494061 0
0.000379793 -0.00567326 0
0.000393634 -0.00643551 0
0.000405295 -0.00722315 0
0.000414785 -0.00803194 0
0.000422114 -0.00885765 0
0.000427293 -0.00969606 0
0.000430334 -0.0105429 0
0.000431247 -0.011394 0
      </DataArray> 
    </PointData>
    <CellData>
    </CellData>
  </Piece>
  </UnstructuredGrid>
</VTKFile>
