<?xml version="1.0"?>
<VTKFile type="UnstructuredGrid">
  <UnstructuredGrid>
  <Piece NumberOfPoints="42"  NumberOfCells="81">
    <Points>
      <DataArray type="Float64" NumberOfComponents="3" format="ascii">
0 0 0
0.299937 -7.35617e-05 0
0.599878 -0.000272229 0
0.899822 -0.000589421 0
1.19977 -0.00101856 0
1.49972 -0.00155305 0
1.79967 -0.00218633 0
2.09963 -0.00291181 0
2.39959 -0.0037229 0
2.69955 -0.00461303 0
2.99952 -0.0055756 0
3.29948 -0.00660405 0
3.59946 -0.00769178 0
3.89943 -0.00883221 0
4.19941 -0.0100188 0
4.49939 -0.0112448 0
4.79937 -0.0125039 0
5.09936 -0.0137893 0
5.39935 -0.0150945 0
5.69935 -0.0164129 0
5.99934 -0.0177358 0
0 0.3 0
0.300066 0.299928 0
0.600128 0.29973 0
0.900187 0.299412 0
1.20024 0.298983 0
1.5003 0.298448 0
1.80034 0.297815 0
2.10039 0.297089 0
2.40043 0.296278 0
2.70047 0.295388 0
3.0005 0.294425 0
3.30053 0.293396 0
3.60056 0.292308 0
3.90059 0.291168 0
4.20061 0.289981 0
4.50062 0.288755 0
4.80064 0.287495 0
5.10065 0.28621 0
5.40066 0.284905 0
5.70066 0.283586 0
6.00066 0.282261 0
      </DataArray>
    </Points>
    <Cells>
      <DataArray type="Int32" Name="connectivity" format="ascii">
0 1
1 2
2 3
3 4
4 5
5 6
6 7
7 8
8 9
9 10
10 11
11 12
12 13
13 14
14 15
15 16
16 17
17 18
18 19
19 20
21 22
22 23
23 24
24 25
25 26
26 27
27 28
28 29
29 30
30 31
31 32
32 33
33 34
34 35
35 36
36 37
37 38
38 39
39 40
40 41
0 21
0 22
1 22
1 23
2 23
2 24
3 24
3 25
4 25
4 26
5 26
5 27
6 27
6 28
7 28
7 29
8 29
8 30
9 30
9 31
10 31
10 32
11 32
11 33
12 33
12 34
13 34
13 35
14 35
14 36
15 36
15 37
16 37
16 38
17 38
17 39
18 39
18 40
19 40
19 41
20 41
      </DataArray>
      <DataArray type="Int32" Name="offsets" format="ascii">
2
4
6
8
10
12
14
16
18
20
22
24
26
28
30
32
34
36
38
40
42
44
46
48
50
52
54
56
58
60
62
64
66
68
70
72
74
76
78
80
82
84
86
88
90
92
94
96
98
100
102
104
106
108
110
112
114
116
118
120
122
124
126
128
130
132
134
136
138
140
142
144
146
148
150
152
154
156
158
160
162
      </DataArray>
      <DataArray type="UInt8" Name="types" format="ascii">
4
4
4
4
4
4
4
4
4
4
4
4
4
4
4
4
4
4
4
4
4
4
4
4
4
4
4
4
4
4
4
4
4
4
4
4
4
4
4
4
4
4
4
4
4
4
4
4
4
4
4
4
4
4
4
4
4
4
4
4
4
4
4
4
4
4
4
4
4
4
4
4
4
4
4
4
4
4
4
4
4
      </DataArray>
    </Cells>
    <PointData>
      <DataArray type="Float64" NumberOfComponents="3" Name="Displacement" format="ascii">
0 0 0
-6.25922e-05 -7.35617e-05 0
-0.000121946 -0.000272229 0
-0.000178107 -0.000589421 0
-0.000231112 -0.00101856 0
-0.000280991 -0.00155305 0
-0.000327769 -0.00218633 0
-0.00037146 -0.00291181 0
-0.000412077 -0.0037229 0
-0.000449624 -0.00461303 0
-0.0004841 -0.0055756 0
-0.000515501 -0.00660405 0
-0.000543818 -0.00769178 0
-0.000569036 -0.00883221 0
-0.00059114 -0.0100188 0
-0.00061011 -0.0112448 0
-0.000625923 -0.0125039 0
-0.000638555 -0.0137893 0
-0.000647979 -0.0150945 0
-0.000654169 -0.0164129 0
-0.000657086 -0.0177358 0
0 0 0
6.5827e-05 -7.15779e-05 0
0.000128307 -0.00027032 0
0.000187395 -0.000587629 0
0.000243053 -0.00101692 0
0.000295252 -0.00155159 0
0.000343969 -0.00218507 0
0.000389186 -0.00291075 0
0.000430894 -0.00372206 0
0.000469086 -0.00461241 0
0.000503764 -0.00557521 0
0.000534933 -0.00660386 0
0.000562601 -0.00769179 0
0.000586783 -0.00883241 0
0.000607494 -0.0100191 0
0.000624755 -0.0112454 0
0.000638587 -0.0125045 0
0.000649016 -0.01379 0
0.000656068 -0.0150953 0
0.00065977 -0.0164137 0
0.000660151 -0.0177387 0
      </DataArray> 
    </PointData>
    <CellData>
    </CellData>
  </Piece>
  </UnstructuredGrid>
</VTKFile>
