<?xml version="1.0"?>
<VTKFile type="UnstructuredGrid">
  <UnstructuredGrid>
  <Piece NumberOfPoints="42"  NumberOfCells="81">
    <Points>
      <DataArray type="Float64" NumberOfComponents="3" format="ascii">
0 0 0
0.299989 -1.34128e-05 0
0.599978 -4.96253e-05 0
0.899968 -0.000107438 0
1.19996 -0.00018565 0
1.49995 -0.000283062 0
1.79994 -0.000398475 0
2.09993 -0.000530688 0
2.39993 -0.000678501 0
2.69992 -0.000840715 0
2.99991 -0.00101613 0
3.29991 -0.00120354 0
3.5999 -0.00140176 0
3.8999 -0.00160958 0
4.19989 -0.00182579 0
4.49989 -0.00204921 0
4.79989 -0.00227863 0
5.09989 -0.00251285 0
5.39989 -0.00275067 0
5.69989 -0.00299089 0
5.99988 -0.00323195 0
0 0.3 0
0.300012 0.299987 0
0.600023 0.299951 0
0.900034 0.299893 0
1.20004 0.299815 0
1.50005 0.299717 0
1.80006 0.299602 0
2.10007 0.29947 0
2.40008 0.299322 0
2.70009 0.29916 0
3.00009 0.298984 0
3.3001 0.298797 0
3.6001 0.298599 0
3.90011 0.298391 0
4.20011 0.298174 0
4.50012 0.297951 0
4.80012 0.297722 0
5.10012 0.297487 0
5.40012 0.29725 0
5.70012 0.297009 0
6.00012 0.296768 0
      </DataArray>
    </Points>
    <Cells>
      <DataArray type="Int32" Name="connectivity" format="ascii">
0 1
1 2
2 3
3 4
4 5
5 6
6 7
7 8
8 9
9 10
10 11
11 12
12 13
13 14
14 15
15 16
16 17
17 18
18 19
19 20
21 22
22 23
23 24
24 25
25 26
26 27
27 28
28 29
29 30
30 31
31 32
32 33
33 34
34 35
35 36
36 37
37 38
38 39
39 40
40 41
0 21
0 22
1 22
1 23
2 23
2 24
3 24
3 25
4 25
4 26
5 26
5 27
6 27
6 28
7 28
7 29
8 29
8 30
9 30
9 31
10 31
10 32
11 32
11 33
12 33
12 34
13 34
13 35
14 35
14 36
15 36
15 37
16 37
16 38
17 38
17 39
18 39
18 40
19 40
19 41
20 41
      </DataArray>
      <DataArray type="Int32" Name="offsets" format="ascii">
2
4
6
8
10
12
14
16
18
20
22
24
26
28
30
32
34
36
38
40
42
44
46
48
50
52
54
56
58
60
62
64
66
68
70
72
74
76
78
80
82
84
86
88
90
92
94
96
98
100
102
104
106
108
110
112
114
116
118
120
122
124
126
128
130
132
134
136
138
140
142
144
146
148
150
152
154
156
158
160
162
      </DataArray>
      <DataArray type="UInt8" Name="types" format="ascii">
4
4
4
4
4
4
4
4
4
4
4
4
4
4
4
4
4
4
4
4
4
4
4
4
4
4
4
4
4
4
4
4
4
4
4
4
4
4
4
4
4
4
4
4
4
4
4
4
4
4
4
4
4
4
4
4
4
4
4
4
4
4
4
4
4
4
4
4
4
4
4
4
4
4
4
4
4
4
4
4
4
      </DataArray>
    </Cells>
    <PointData>
      <DataArray type="Float64" NumberOfComponents="3" Name="Displacement" format="ascii">
0 0 0
-1.14012e-05 -1.34128e-05 0
-2.22041e-05 -4.96253e-05 0
-3.24104e-05 -0.000107438 0
-4.20212e-05 -0.00018565 0
-5.10375e-05 -0.000283062 0
-5.94602e-05 -0.000398475 0
-6.72897e-05 -0.000530688 0
-7.45265e-05 -0.000678501 0
-8.11706e-05 -0.000840715 0
-8.72222e-05 -0.00101613 0
-9.26809e-05 -0.00120354 0
-9.75465e-05 -0.00140176 0
-0.000101819 -0.00160958 0
-0.000105497 -0.00182579 0
-0.00010858 -0.00204921 0
-0.000111068 -0.00227863 0
-0.000112959 -0.00251285 0
-0.000114253 -0.00275067 0
-0.00011495 -0.00299089 0
-0.000115046 -0.00323195 0
0 0 0
1.19992e-05 -1.30448e-05 0
2.33967e-05 -4.92598e-05 0
3.41908e-05 -0.000107076 0
4.43804e-05 -0.000185293 0
5.39644e-05 -0.000282712 0
6.29422e-05 -0.000398131 0
7.1313e-05 -0.000530351 0
7.90767e-05 -0.000678171 0
8.6233e-05 -0.000840392 0
9.27819e-05 -0.00101581 0
9.87235e-05 -0.00120324 0
0.000104058 -0.00140146 0
0.000108787 -0.00160928 0
0.000112909 -0.0018255 0
0.000116426 -0.00204893 0
0.000119339 -0.00227835 0
0.000121648 -0.00251257 0
0.000123354 -0.0027504 0
0.000124459 -0.00299062 0
0.000124962 -0.00323204 0
      </DataArray> 
    </PointData>
    <CellData>
    </CellData>
  </Piece>
  </UnstructuredGrid>
</VTKFile>
