<?xml version="1.0"?>
<VTKFile type="UnstructuredGrid">
  <UnstructuredGrid>
  <Piece NumberOfPoints="42"  NumberOfCells="81">
    <Points>
      <DataArray type="Float64" NumberOfComponents="3" format="ascii">
0 0 0
0.29996 -4.74328e-05 0
0.599921 -0.000175517 0
0.899885 -0.000380009 0
1.19985 -0.000656665 0
1.49982 -0.00100124 0
1.79979 -0.0014095 0
2.09976 -0.00187719 0
2.39974 -0.00240006 0
2.69971 -0.00297389 0
2.99969 -0.00359441 0
3.29967 -0.0042574 0
3.59965 -0.00495859 0
3.89964 -0.00569376 0
4.19962 -0.00645865 0
4.49961 -0.00724902 0
4.7996 -0.00806063 0
5.09959 -0.00888923 0
5.39959 -0.00973057 0
5.69958 -0.0105804 0
5.99958 -0.0114332 0
0 0.3 0
0.300042 0.299954 0
0.600083 0.299826 0
0.900121 0.299621 0
1.20016 0.299344 0
1.50019 0.299 0
1.80022 0.298591 0
2.10025 0.298124 0
2.40028 0.297601 0
2.7003 0.297027 0
3.00033 0.296406 0
3.30035 0.295743 0
3.60037 0.295042 0
3.90038 0.294307 0
4.2004 0.293542 0
4.50041 0.292751 0
4.80042 0.29194 0
5.10042 0.291111 0
5.40043 0.29027 0
5.70043 0.28942 0
6.00043 0.288566 0
      </DataArray>
    </Points>
    <Cells>
      <DataArray type="Int32" Name="connectivity" format="ascii">
0 1
1 2
2 3
3 4
4 5
5 6
6 7
7 8
8 9
9 10
10 11
11 12
12 13
13 14
14 15
15 16
16 17
17 18
18 19
19 20
21 22
22 23
23 24
24 25
25 26
26 27
27 28
28 29
29 30
30 31
31 32
32 33
33 34
34 35
35 36
36 37
37 38
38 39
39 40
40 41
0 21
0 22
1 22
1 23
2 23
2 24
3 24
3 25
4 25
4 26
5 26
5 27
6 27
6 28
7 28
7 29
8 29
8 30
9 30
9 31
10 31
10 32
11 32
11 33
12 33
12 34
13 34
13 35
14 35
14 36
15 36
15 37
16 37
16 38
17 38
17 39
18 39
18 40
19 40
19 41
20 41
      </DataArray>
      <DataArray type="Int32" Name="offsets" format="ascii">
2
4
6
8
10
12
14
16
18
20
22
24
26
28
30
32
34
36
38
40
42
44
46
48
50
52
54
56
58
60
62
64
66
68
70
72
74
76
78
80
82
84
86
88
90
92
94
96
98
100
102
104
106
108
110
112
114
116
118
120
122
124
126
128
130
132
134
136
138
140
142
144
146
148
150
152
154
156
158
160
162
      </DataArray>
      <DataArray type="UInt8" Name="types" format="ascii">
4
4
4
4
4
4
4
4
4
4
4
4
4
4
4
4
4
4
4
4
4
4
4
4
4
4
4
4
4
4
4
4
4
4
4
4
4
4
4
4
4
4
4
4
4
4
4
4
4
4
4
4
4
4
4
4
4
4
4
4
4
4
4
4
4
4
4
4
4
4
4
4
4
4
4
4
4
4
4
4
4
      </DataArray>
    </Cells>
    <PointData>
      <DataArray type="Float64" NumberOfComponents="3" Name="Displacement" format="ascii">
0 0 0
-4.0342e-05 -4.74328e-05 0
-7.85839e-05 -0.000175517 0
-0.000114745 -0.000380009 0
-0.00014884 -0.000656665 0
-0.000180882 -0.00100124 0
-0.00021088 -0.0014095 0
-0.000238843 -0.00187719 0
-0.000264772 -0.00240006 0
-0.000288672 -0.00297389 0
-0.000310542 -0.00359441 0
-0.00033038 -0.0042574 0
-0.000348181 -0.00495859 0
-0.000363941 -0.00569376 0
-0.000377652 -0.00645865 0
-0.000389306 -0.00724902 0
-0.000398895 -0.00806063 0
-0.000406407 -0.00888923 0
-0.000411831 -0.00973057 0
-0.000415158 -0.0105804 0
-0.00041637 -0.0114332 0
0 0 0
4.24405e-05 -4.6144e-05 0
8.27357e-05 -0.000174259 0
0.000120867 -0.0003788 0
0.000156819 -0.000655519 0
0.000190579 -0.00100017 0
0.000222138 -0.00140851 0
0.000251489 -0.00187628 0
0.000278626 -0.00239925 0
0.000303549 -0.00297317 0
0.000326257 -0.00359378 0
0.000346752 -0.00425686 0
0.000365038 -0.00495814 0
0.000381121 -0.00569338 0
0.000395008 -0.00645834 0
0.000406707 -0.00724877 0
0.000416226 -0.00806043 0
0.000423578 -0.00888907 0
0.000428771 -0.00973044 0
0.000431818 -0.0105803 0
0.000432731 -0.0114344 0
      </DataArray> 
    </PointData>
    <CellData>
    </CellData>
  </Piece>
  </UnstructuredGrid>
</VTKFile>
