<?xml version="1.0"?>
<VTKFile type="UnstructuredGrid">
  <UnstructuredGrid>
  <Piece NumberOfPoints="42"  NumberOfCells="81">
    <Points>
      <DataArray type="Float64" NumberOfComponents="3" format="ascii">
0 0 0
0.299968 -3.7715e-05 0
0.599938 -0.000139553 0
0.899909 -0.000302139 0
1.19988 -0.0005221 0
1.49986 -0.000796062 0
1.79983 -0.00112065 0
2.09981 -0.00149249 0
2.39979 -0.00190821 0
2.69977 -0.00236443 0
2.99975 -0.00285778 0
3.29974 -0.00338489 0
3.59972 -0.00394238 0
3.89971 -0.00452687 0
4.1997 -0.00513499 0
4.49969 -0.00576337 0
4.79968 -0.00640864 0
5.09968 -0.0070674 0
5.39967 -0.00773631 0
5.69967 -0.00841197 0
5.99967 -0.00908997 0
0 0.3 0
0.300034 0.299963 0
0.600066 0.299861 0
0.900096 0.299699 0
1.20012 0.299479 0
1.50015 0.299205 0
1.80018 0.29888 0
2.1002 0.298508 0
2.40022 0.298093 0
2.70024 0.297636 0
3.00026 0.297143 0
3.30028 0.296616 0
3.60029 0.296058 0
3.9003 0.295474 0
4.20032 0.294865 0
4.50032 0.294237 0
4.80033 0.293592 0
5.10034 0.292933 0
5.40034 0.292264 0
5.70035 0.291588 0
6.00035 0.290909 0
      </DataArray>
    </Points>
    <Cells>
      <DataArray type="Int32" Name="connectivity" format="ascii">
0 1
1 2
2 3
3 4
4 5
5 6
6 7
7 8
8 9
9 10
10 11
11 12
12 13
13 14
14 15
15 16
16 17
17 18
18 19
19 20
21 22
22 23
23 24
24 25
25 26
26 27
27 28
28 29
29 30
30 31
31 32
32 33
33 34
34 35
35 36
36 37
37 38
38 39
39 40
40 41
0 21
0 22
1 22
1 23
2 23
2 24
3 24
3 25
4 25
4 26
5 26
5 27
6 27
6 28
7 28
7 29
8 29
8 30
9 30
9 31
10 31
10 32
11 32
11 33
12 33
12 34
13 34
13 35
14 35
14 36
15 36
15 37
16 37
16 38
17 38
17 39
18 39
18 40
19 40
19 41
20 41
      </DataArray>
      <DataArray type="Int32" Name="offsets" format="ascii">
2
4
6
8
10
12
14
16
18
20
22
24
26
28
30
32
34
36
38
40
42
44
46
48
50
52
54
56
58
60
62
64
66
68
70
72
74
76
78
80
82
84
86
88
90
92
94
96
98
100
102
104
106
108
110
112
114
116
118
120
122
124
126
128
130
132
134
136
138
140
142
144
146
148
150
152
154
156
158
160
162
      </DataArray>
      <DataArray type="UInt8" Name="types" format="ascii">
4
4
4
4
4
4
4
4
4
4
4
4
4
4
4
4
4
4
4
4
4
4
4
4
4
4
4
4
4
4
4
4
4
4
4
4
4
4
4
4
4
4
4
4
4
4
4
4
4
4
4
4
4
4
4
4
4
4
4
4
4
4
4
4
4
4
4
4
4
4
4
4
4
4
4
4
4
4
4
4
4
      </DataArray>
    </Cells>
    <PointData>
      <DataArray type="Float64" NumberOfComponents="3" Name="Displacement" format="ascii">
0 0 0
-3.20717e-05 -3.7715e-05 0
-6.247e-05 -0.000139553 0
-9.1207e-05 -0.000302139 0
-0.000118292 -0.0005221 0
-0.000143734 -0.000796062 0
-0.000167539 -0.00112065 0
-0.00018971 -0.00149249 0
-0.00021025 -0.00190821 0
-0.000229162 -0.00236443 0
-0.000246445 -0.00285778 0
-0.000262097 -0.00338489 0
-0.000276116 -0.00394238 0
-0.000288499 -0.00452687 0
-0.000299241 -0.00513499 0
-0.000308337 -0.00576337 0
-0.000315781 -0.00640864 0
-0.000321567 -0.0070674 0
-0.000325688 -0.00773631 0
-0.000328136 -0.00841197 0
-0.000328902 -0.00908997 0
0 0 0
3.3744e-05 -3.66874e-05 0
6.57861e-05 -0.000138545 0
9.61146e-05 -0.000301162 0
0.00012472 -0.000521162 0
0.000151593 -0.000795171 0
0.00017673 -0.00111981 0
0.000200124 -0.00149171 0
0.000221774 -0.00190748 0
0.000241678 -0.00236376 0
0.000259837 -0.00285717 0
0.00027625 -0.00338433 0
0.000290922 -0.00394187 0
0.000303855 -0.00452641 0
0.000315054 -0.00513458 0
0.000324524 -0.005763 0
0.000332271 -0.0064083 0
0.000338301 -0.00706709 0
0.000342621 -0.00773601 0
0.000345239 -0.00841168 0
0.000346162 -0.00909073 0
      </DataArray> 
    </PointData>
    <CellData>
    </CellData>
  </Piece>
  </UnstructuredGrid>
</VTKFile>
