<?xml version="1.0"?>
<VTKFile type="UnstructuredGrid">
  <UnstructuredGrid>
  <Piece NumberOfPoints="42"  NumberOfCells="81">
    <Points>
      <DataArray type="Float64" NumberOfComponents="3" format="ascii">
0 0 0
0.299992 -9.054e-06 0
0.599985 -3.34979e-05 0
0.899978 -7.25216e-05 0
1.19997 -0.000125315 0
1.49997 -0.000191069 0
1.79996 -0.000268973 0
2.09995 -0.000358217 0
2.39995 -0.000457991 0
2.69995 -0.000567486 0
2.99994 -0.000685891 0
3.29994 -0.000812396 0
3.59993 -0.000946191 0
3.89993 -0.00108647 0
4.19993 -0.00123241 0
4.49993 -0.00138322 0
4.79993 -0.00153808 0
5.09992 -0.00169617 0
5.39992 -0.0018567 0
5.69992 -0.00201885 0
5.99992 -0.00218156 0
0 0.3 0
0.300008 0.299991 0
0.600016 0.299967 0
0.900023 0.299928 0
1.20003 0.299875 0
1.50004 0.299809 0
1.80004 0.299731 0
2.10005 0.299642 0
2.40005 0.299542 0
2.70006 0.299433 0
3.00006 0.299314 0
3.30007 0.299188 0
3.60007 0.299054 0
3.90007 0.298914 0
4.20008 0.298768 0
4.50008 0.298617 0
4.80008 0.298462 0
5.10008 0.298304 0
5.40008 0.298144 0
5.70008 0.297981 0
6.00008 0.297818 0
      </DataArray>
    </Points>
    <Cells>
      <DataArray type="Int32" Name="connectivity" format="ascii">
0 1
1 2
2 3
3 4
4 5
5 6
6 7
7 8
8 9
9 10
10 11
11 12
12 13
13 14
14 15
15 16
16 17
17 18
18 19
19 20
21 22
22 23
23 24
24 25
25 26
26 27
27 28
28 29
29 30
30 31
31 32
32 33
33 34
34 35
35 36
36 37
37 38
38 39
39 40
40 41
0 21
0 22
1 22
1 23
2 23
2 24
3 24
3 25
4 25
4 26
5 26
5 27
6 27
6 28
7 28
7 29
8 29
8 30
9 30
9 31
10 31
10 32
11 32
11 33
12 33
12 34
13 34
13 35
14 35
14 36
15 36
15 37
16 37
16 38
17 38
17 39
18 39
18 40
19 40
19 41
20 41
      </DataArray>
      <DataArray type="Int32" Name="offsets" format="ascii">
2
4
6
8
10
12
14
16
18
20
22
24
26
28
30
32
34
36
38
40
42
44
46
48
50
52
54
56
58
60
62
64
66
68
70
72
74
76
78
80
82
84
86
88
90
92
94
96
98
100
102
104
106
108
110
112
114
116
118
120
122
124
126
128
130
132
134
136
138
140
142
144
146
148
150
152
154
156
158
160
162
      </DataArray>
      <DataArray type="UInt8" Name="types" format="ascii">
4
4
4
4
4
4
4
4
4
4
4
4
4
4
4
4
4
4
4
4
4
4
4
4
4
4
4
4
4
4
4
4
4
4
4
4
4
4
4
4
4
4
4
4
4
4
4
4
4
4
4
4
4
4
4
4
4
4
4
4
4
4
4
4
4
4
4
4
4
4
4
4
4
4
4
4
4
4
4
4
4
      </DataArray>
    </Cells>
    <PointData>
      <DataArray type="Float64" NumberOfComponents="3" Name="Displacement" format="ascii">
0 0 0
-7.69553e-06 -9.054e-06 0
-1.49869e-05 -3.34979e-05 0
-2.18747e-05 -7.25216e-05 0
-2.83597e-05 -0.000125315 0
-3.44421e-05 -0.000191069 0
-4.01224e-05 -0.000268973 0
-4.54009e-05 -0.000358217 0
-5.02776e-05 -0.000457991 0
-5.47528e-05 -0.000567486 0
-5.88262e-05 -0.000685891 0
-6.2498e-05 -0.000812396 0
-6.57679e-05 -0.000946191 0
-6.86357e-05 -0.00108647 0
-7.11013e-05 -0.00123241 0
-7.31642e-05 -0.00138322 0
-7.48242e-05 -0.00153808 0
-7.60809e-05 -0.00169617 0
-7.69338e-05 -0.0018567 0
-7.73826e-05 -0.00201885 0
-7.74268e-05 -0.00218156 0
0 0 0
8.09966e-06 -8.80527e-06 0
1.57935e-05 -3.32503e-05 0
2.30808e-05 -7.22758e-05 0
2.99611e-05 -0.000125072 0
3.64338e-05 -0.000190828 0
4.24986e-05 -0.000268735 0
4.81554e-05 -0.000357983 0
5.34038e-05 -0.00045776 0
5.82439e-05 -0.000567258 0
6.26756e-05 -0.000685666 0
6.6699e-05 -0.000812174 0
7.03143e-05 -0.000945972 0
7.35217e-05 -0.00108625 0
7.63214e-05 -0.0012322 0
7.87136e-05 -0.00138301 0
8.06989e-05 -0.00153787 0
8.22774e-05 -0.00169597 0
8.34497e-05 -0.00185649 0
8.4216e-05 -0.00201864 0
8.4577e-05 -0.0021816 0
      </DataArray> 
    </PointData>
    <CellData>
    </CellData>
  </Piece>
  </UnstructuredGrid>
</VTKFile>
