<?xml version="1.0"?>
<VTKFile type="UnstructuredGrid">
  <UnstructuredGrid>
  <Piece NumberOfPoints="42"  NumberOfCells="81">
    <Points>
      <DataArray type="Float64" NumberOfComponents="3" format="ascii">
0 0 0
0.299974 -3.06769e-05 0
0.599949 -0.000113507 0
0.899926 -0.000245747 0
1.1999 -0.000424651 0
1.49988 -0.000647476 0
1.79986 -0.000911476 0
2.09985 -0.00121391 0
2.39983 -0.00155203 0
2.69981 -0.00192309 0
2.9998 -0.00232435 0
3.29979 -0.00275306 0
3.59978 -0.00320648 0
3.89977 -0.00368187 0
4.19976 -0.00417647 0
4.49975 -0.00468755 0
4.79974 -0.00521236 0
5.09974 -0.00574815 0
5.39974 -0.00629219 0
5.69973 -0.00684172 0
5.99973 -0.00739315 0
0 0.3 0
0.300027 0.29997 0
0.600054 0.299887 0
0.900078 0.299755 0
1.2001 0.299576 0
1.50012 0.299353 0
1.80014 0.299089 0
2.10016 0.298787 0
2.40018 0.298449 0
2.7002 0.298078 0
3.00021 0.297676 0
3.30023 0.297247 0
3.60024 0.296794 0
3.90025 0.296319 0
4.20026 0.295824 0
4.50026 0.295313 0
4.80027 0.294788 0
5.10028 0.294252 0
5.40028 0.293708 0
5.70028 0.293159 0
6.00028 0.292606 0
      </DataArray>
    </Points>
    <Cells>
      <DataArray type="Int32" Name="connectivity" format="ascii">
0 1
1 2
2 3
3 4
4 5
5 6
6 7
7 8
8 9
9 10
10 11
11 12
12 13
13 14
14 15
15 16
16 17
17 18
18 19
19 20
21 22
22 23
23 24
24 25
25 26
26 27
27 28
28 29
29 30
30 31
31 32
32 33
33 34
34 35
35 36
36 37
37 38
38 39
39 40
40 41
0 21
0 22
1 22
1 23
2 23
2 24
3 24
3 25
4 25
4 26
5 26
5 27
6 27
6 28
7 28
7 29
8 29
8 30
9 30
9 31
10 31
10 32
11 32
11 33
12 33
12 34
13 34
13 35
14 35
14 36
15 36
15 37
16 37
16 38
17 38
17 39
18 39
18 40
19 40
19 41
20 41
      </DataArray>
      <DataArray type="Int32" Name="offsets" format="ascii">
2
4
6
8
10
12
14
16
18
20
22
24
26
28
30
32
34
36
38
40
42
44
46
48
50
52
54
56
58
60
62
64
66
68
70
72
74
76
78
80
82
84
86
88
90
92
94
96
98
100
102
104
106
108
110
112
114
116
118
120
122
124
126
128
130
132
134
136
138
140
142
144
146
148
150
152
154
156
158
160
162
      </DataArray>
      <DataArray type="UInt8" Name="types" format="ascii">
4
4
4
4
4
4
4
4
4
4
4
4
4
4
4
4
4
4
4
4
4
4
4
4
4
4
4
4
4
4
4
4
4
4
4
4
4
4
4
4
4
4
4
4
4
4
4
4
4
4
4
4
4
4
4
4
4
4
4
4
4
4
4
4
4
4
4
4
4
4
4
4
4
4
4
4
4
4
4
4
4
      </DataArray>
    </Cells>
    <PointData>
      <DataArray type="Float64" NumberOfComponents="3" Name="Displacement" format="ascii">
0 0 0
-2.60836e-05 -3.06769e-05 0
-5.0804e-05 -0.000113507 0
-7.41693e-05 -0.000245747 0
-9.61858e-05 -0.000424651 0
-0.000116859 -0.000647476 0
-0.000136192 -0.000911476 0
-0.000154189 -0.00121391 0
-0.000170852 -0.00155203 0
-0.00018618 -0.00192309 0
-0.000200175 -0.00232435 0
-0.000212835 -0.00275306 0
-0.000224158 -0.00320648 0
-0.000234143 -0.00368187 0
-0.000242786 -0.00417647 0
-0.000250084 -0.00468755 0
-0.000256033 -0.00521236 0
-0.00026063 -0.00574815 0
-0.000263868 -0.00629219 0
-0.000265744 -0.00684172 0
-0.00026625 -0.00739315 0
0 0 0
2.7446e-05 -2.98393e-05 0
5.351e-05 -0.000112683 0
7.81843e-05 -0.000244942 0
0.000101462 -0.000423873 0
0.000123339 -0.000646728 0
0.00014381 -0.000910763 0
0.000162872 -0.00121323 0
0.000180525 -0.00155139 0
0.000196766 -0.00192249 0
0.000211596 -0.00232379 0
0.000225016 -0.00275254 0
0.000237027 -0.00320599 0
0.000247632 -0.00368141 0
0.000256834 -0.00417604 0
0.000264635 -0.00468715 0
0.000271041 -0.00521198 0
0.000276055 -0.00574779 0
0.000279681 -0.00629183 0
0.000281925 -0.00684137 0
0.000282792 -0.00739365 0
      </DataArray> 
    </PointData>
    <CellData>
    </CellData>
  </Piece>
  </UnstructuredGrid>
</VTKFile>
