<?xml version="1.0"?>
<VTKFile type="UnstructuredGrid">
  <UnstructuredGrid>
  <Piece NumberOfPoints="42"  NumberOfCells="81">
    <Points>
      <DataArray type="Float64" NumberOfComponents="3" format="ascii">
0 0 0
0.299985 -1.81065e-05 0
0.59997 -6.69924e-05 0
0.899956 -0.000145038 0
1.19994 -0.000250624 0
1.49993 -0.000382129 0
1.79992 -0.000537936 0
2.09991 -0.000716422 0
2.3999 -0.00091597 0
2.69989 -0.00113496 0
2.99988 -0.00137177 0
3.29987 -0.00162478 0
3.59987 -0.00189237 0
3.89986 -0.00217292 0
4.19986 -0.00246482 0
4.49985 -0.00276643 0
4.79985 -0.00307615 0
5.09985 -0.00339235 0
5.39985 -0.00371341 0
5.69984 -0.00403771 0
5.99984 -0.00436314 0
0 0.3 0
0.300016 0.299982 0
0.600032 0.299933 0
0.900046 0.299855 0
1.20006 0.29975 0
1.50007 0.299618 0
1.80008 0.299463 0
2.1001 0.299284 0
2.40011 0.299084 0
2.70012 0.298865 0
3.00013 0.298629 0
3.30013 0.298376 0
3.60014 0.298108 0
3.90015 0.297827 0
4.20015 0.297536 0
4.50016 0.297234 0
4.80016 0.296924 0
5.10016 0.296608 0
5.40017 0.296287 0
5.70017 0.295963 0
6.00017 0.295637 0
      </DataArray>
    </Points>
    <Cells>
      <DataArray type="Int32" Name="connectivity" format="ascii">
0 1
1 2
2 3
3 4
4 5
5 6
6 7
7 8
8 9
9 10
10 11
11 12
12 13
13 14
14 15
15 16
16 17
17 18
18 19
19 20
21 22
22 23
23 24
24 25
25 26
26 27
27 28
28 29
29 30
30 31
31 32
32 33
33 34
34 35
35 36
36 37
37 38
38 39
39 40
40 41
0 21
0 22
1 22
1 23
2 23
2 24
3 24
3 25
4 25
4 26
5 26
5 27
6 27
6 28
7 28
7 29
8 29
8 30
9 30
9 31
10 31
10 32
11 32
11 33
12 33
12 34
13 34
13 35
14 35
14 36
15 36
15 37
16 37
16 38
17 38
17 39
18 39
18 40
19 40
19 41
20 41
      </DataArray>
      <DataArray type="Int32" Name="offsets" format="ascii">
2
4
6
8
10
12
14
16
18
20
22
24
26
28
30
32
34
36
38
40
42
44
46
48
50
52
54
56
58
60
62
64
66
68
70
72
74
76
78
80
82
84
86
88
90
92
94
96
98
100
102
104
106
108
110
112
114
116
118
120
122
124
126
128
130
132
134
136
138
140
142
144
146
148
150
152
154
156
158
160
162
      </DataArray>
      <DataArray type="UInt8" Name="types" format="ascii">
4
4
4
4
4
4
4
4
4
4
4
4
4
4
4
4
4
4
4
4
4
4
4
4
4
4
4
4
4
4
4
4
4
4
4
4
4
4
4
4
4
4
4
4
4
4
4
4
4
4
4
4
4
4
4
4
4
4
4
4
4
4
4
4
4
4
4
4
4
4
4
4
4
4
4
4
4
4
4
4
4
      </DataArray>
    </Cells>
    <PointData>
      <DataArray type="Float64" NumberOfComponents="3" Name="Displacement" format="ascii">
0 0 0
-1.53921e-05 -1.81065e-05 0
-2.99775e-05 -6.69924e-05 0
-4.37589e-05 -0.000145038 0
-5.67386e-05 -0.000250624 0
-6.89184e-05 -0.000382129 0
-8.02997e-05 -0.000537936 0
-9.08835e-05 -0.000716422 0
-0.000100671 -0.00091597 0
-0.000109661 -0.00113496 0
-0.000117855 -0.00137177 0
-0.000125252 -0.00162478 0
-0.000131852 -0.00189237 0
-0.000137653 -0.00217292 0
-0.000142655 -0.00246482 0
-0.000146857 -0.00276643 0
-0.000150257 -0.00307615 0
-0.000152853 -0.00339235 0
-0.000154645 -0.00371341 0
-0.000155631 -0.00403771 0
-0.000155807 -0.00436314 0
0 0 0
1.61986e-05 -1.76104e-05 0
3.15839e-05 -6.65008e-05 0
4.61532e-05 -0.000144554 0
5.99042e-05 -0.000250148 0
7.28352e-05 -0.000381665 0
8.49446e-05 -0.000537483 0
9.62315e-05 -0.000715982 0
0.000106695 -0.000915543 0
0.000116336 -0.00113454 0
0.000125152 -0.00137137 0
0.000133146 -0.00162439 0
0.000140317 -0.00189199 0
0.000146667 -0.00217256 0
0.000152195 -0.00246446 0
0.000156904 -0.00276609 0
0.000160795 -0.00307581 0
0.000163869 -0.00339202 0
0.000166129 -0.00371308 0
0.000167574 -0.00403739 0
0.000168208 -0.00436331 0
      </DataArray> 
    </PointData>
    <CellData>
    </CellData>
  </Piece>
  </UnstructuredGrid>
</VTKFile>
