<?xml version="1.0"?>
<VTKFile type="UnstructuredGrid">
  <UnstructuredGrid>
  <Piece NumberOfPoints="42"  NumberOfCells="81">
    <Points>
      <DataArray type="Float64" NumberOfComponents="3" format="ascii">
0 0 0
0.299973 -3.185e-05 0
0.599947 -0.000117848 0
0.899923 -0.000255146 0
1.1999 -0.000440893 0
1.49988 -0.00067224 0
1.79986 -0.000946339 0
2.09984 -0.00126034 0
2.39982 -0.00161139 0
2.69981 -0.00199665 0
2.99979 -0.00241326 0
3.29978 -0.00285837 0
3.59977 -0.00332913 0
3.89976 -0.0038227 0
4.19975 -0.00433623 0
4.49974 -0.00486686 0
4.79973 -0.00541174 0
5.09973 -0.00596803 0
5.39973 -0.00653287 0
5.69972 -0.00710342 0
5.99972 -0.00767595 0
0 0.3 0
0.300028 0.299969 0
0.600056 0.299883 0
0.900081 0.299746 0
1.20011 0.29956 0
1.50013 0.299329 0
1.80015 0.299054 0
2.10017 0.29874 0
2.40019 0.298389 0
2.7002 0.298004 0
3.00022 0.297587 0
3.30023 0.297142 0
3.60025 0.296671 0
3.90026 0.296178 0
4.20027 0.295664 0
4.50027 0.295134 0
4.80028 0.294589 0
5.10029 0.294032 0
5.40029 0.293467 0
5.70029 0.292897 0
6.00029 0.292324 0
      </DataArray>
    </Points>
    <Cells>
      <DataArray type="Int32" Name="connectivity" format="ascii">
0 1
1 2
2 3
3 4
4 5
5 6
6 7
7 8
8 9
9 10
10 11
11 12
12 13
13 14
14 15
15 16
16 17
17 18
18 19
19 20
21 22
22 23
23 24
24 25
25 26
26 27
27 28
28 29
29 30
30 31
31 32
32 33
33 34
34 35
35 36
36 37
37 38
38 39
39 40
40 41
0 21
0 22
1 22
1 23
2 23
2 24
3 24
3 25
4 25
4 26
5 26
5 27
6 27
6 28
7 28
7 29
8 29
8 30
9 30
9 31
10 31
10 32
11 32
11 33
12 33
12 34
13 34
13 35
14 35
14 36
15 36
15 37
16 37
16 38
17 38
17 39
18 39
18 40
19 40
19 41
20 41
      </DataArray>
      <DataArray type="Int32" Name="offsets" format="ascii">
2
4
6
8
10
12
14
16
18
20
22
24
26
28
30
32
34
36
38
40
42
44
46
48
50
52
54
56
58
60
62
64
66
68
70
72
74
76
78
80
82
84
86
88
90
92
94
96
98
100
102
104
106
108
110
112
114
116
118
120
122
124
126
128
130
132
134
136
138
140
142
144
146
148
150
152
154
156
158
160
162
      </DataArray>
      <DataArray type="UInt8" Name="types" format="ascii">
4
4
4
4
4
4
4
4
4
4
4
4
4
4
4
4
4
4
4
4
4
4
4
4
4
4
4
4
4
4
4
4
4
4
4
4
4
4
4
4
4
4
4
4
4
4
4
4
4
4
4
4
4
4
4
4
4
4
4
4
4
4
4
4
4
4
4
4
4
4
4
4
4
4
4
4
4
4
4
4
4
      </DataArray>
    </Cells>
    <PointData>
      <DataArray type="Float64" NumberOfComponents="3" Name="Displacement" format="ascii">
0 0 0
-2.70815e-05 -3.185e-05 0
-5.27482e-05 -0.000117848 0
-7.70085e-05 -0.000255146 0
-9.98694e-05 -0.000440893 0
-0.000121337 -0.00067224 0
-0.000141414 -0.000946339 0
-0.000160106 -0.00126034 0
-0.000177413 -0.00161139 0
-0.000193337 -0.00199665 0
-0.000207878 -0.00241326 0
-0.000221034 -0.00285837 0
-0.000232805 -0.00332913 0
-0.000243186 -0.0038227 0
-0.000252176 -0.00433623 0
-0.000259771 -0.00486686 0
-0.000265966 -0.00541174 0
-0.000270757 -0.00596803 0
-0.000274139 -0.00653287 0
-0.000276106 -0.00710342 0
-0.000276652 -0.00767595 0
0 0 0
2.84957e-05 -3.09807e-05 0
5.55562e-05 -0.000116993 0
8.1173e-05 -0.000254312 0
0.000105339 -0.000440088 0
0.000128049 -0.000671468 0
0.000149299 -0.000945604 0
0.000169084 -0.00125964 0
0.000187404 -0.00161074 0
0.000204258 -0.00199603 0
0.000219644 -0.00241268 0
0.000233565 -0.00285783 0
0.000246023 -0.00332864 0
0.000257018 -0.00382224 0
0.000266556 -0.0043358 0
0.000274639 -0.00486645 0
0.000281271 -0.00541136 0
0.000286458 -0.00596767 0
0.000290204 -0.00653253 0
0.000292514 -0.00710308 0
0.000293393 -0.00767649 0
      </DataArray> 
    </PointData>
    <CellData>
    </CellData>
  </Piece>
  </UnstructuredGrid>
</VTKFile>
