<?xml version="1.0"?>
<VTKFile type="UnstructuredGrid">
  <UnstructuredGrid>
  <Piece NumberOfPoints="42"  NumberOfCells="81">
    <Points>
      <DataArray type="Float64" NumberOfComponents="3" format="ascii">
0 0 0
0.299998 -1.84445e-06 0
0.599997 -6.8239e-06 0
0.899996 -1.47734e-05 0
1.19999 -2.55278e-05 0
1.49999 -3.89222e-05 0
1.79999 -5.47917e-05 0
2.09999 -7.29712e-05 0
2.39999 -9.32956e-05 0
2.69999 -0.0001156 0
2.99999 -0.00013972 0
3.29999 -0.000165489 0
3.59999 -0.000192744 0
3.89999 -0.000221318 0
4.19999 -0.000251048 0
4.49999 -0.000281767 0
4.79998 -0.000313312 0
5.09998 -0.000345516 0
5.39998 -0.000378216 0
5.69998 -0.000411246 0
5.99998 -0.000444389 0
0 0.3 0
0.300002 0.299998 0
0.600003 0.299993 0
0.900005 0.299985 0
1.20001 0.299975 0
1.50001 0.299961 0
1.80001 0.299945 0
2.10001 0.299927 0
2.40001 0.299907 0
2.70001 0.299884 0
3.00001 0.29986 0
3.30001 0.299835 0
3.60001 0.299807 0
3.90002 0.299779 0
4.20002 0.299749 0
4.50002 0.299718 0
4.80002 0.299687 0
5.10002 0.299655 0
5.40002 0.299622 0
5.70002 0.299589 0
6.00002 0.299556 0
      </DataArray>
    </Points>
    <Cells>
      <DataArray type="Int32" Name="connectivity" format="ascii">
0 1
1 2
2 3
3 4
4 5
5 6
6 7
7 8
8 9
9 10
10 11
11 12
12 13
13 14
14 15
15 16
16 17
17 18
18 19
19 20
21 22
22 23
23 24
24 25
25 26
26 27
27 28
28 29
29 30
30 31
31 32
32 33
33 34
34 35
35 36
36 37
37 38
38 39
39 40
40 41
0 21
0 22
1 22
1 23
2 23
2 24
3 24
3 25
4 25
4 26
5 26
5 27
6 27
6 28
7 28
7 29
8 29
8 30
9 30
9 31
10 31
10 32
11 32
11 33
12 33
12 34
13 34
13 35
14 35
14 36
15 36
15 37
16 37
16 38
17 38
17 39
18 39
18 40
19 40
19 41
20 41
      </DataArray>
      <DataArray type="Int32" Name="offsets" format="ascii">
2
4
6
8
10
12
14
16
18
20
22
24
26
28
30
32
34
36
38
40
42
44
46
48
50
52
54
56
58
60
62
64
66
68
70
72
74
76
78
80
82
84
86
88
90
92
94
96
98
100
102
104
106
108
110
112
114
116
118
120
122
124
126
128
130
132
134
136
138
140
142
144
146
148
150
152
154
156
158
160
162
      </DataArray>
      <DataArray type="UInt8" Name="types" format="ascii">
4
4
4
4
4
4
4
4
4
4
4
4
4
4
4
4
4
4
4
4
4
4
4
4
4
4
4
4
4
4
4
4
4
4
4
4
4
4
4
4
4
4
4
4
4
4
4
4
4
4
4
4
4
4
4
4
4
4
4
4
4
4
4
4
4
4
4
4
4
4
4
4
4
4
4
4
4
4
4
4
4
      </DataArray>
    </Cells>
    <PointData>
      <DataArray type="Float64" NumberOfComponents="3" Name="Displacement" format="ascii">
0 0 0
-1.56752e-06 -1.84445e-06 0
-3.05258e-06 -6.8239e-06 0
-4.4552e-06 -1.47734e-05 0
-5.7754e-06 -2.55278e-05 0
-7.01321e-06 -3.89222e-05 0
-8.16864e-06 -5.47917e-05 0
-9.2417e-06 -7.29712e-05 0
-1.02324e-05 -9.32956e-05 0
-1.11407e-05 -0.0001156 0
-1.19667e-05 -0.00013972 0
-1.27103e-05 -0.000165489 0
-1.33716e-05 -0.000192744 0
-1.39504e-05 -0.000221318 0
-1.44469e-05 -0.000251048 0
-1.4861e-05 -0.000281767 0
-1.51926e-05 -0.000313312 0
-1.54419e-05 -0.000345516 0
-1.56086e-05 -0.000378216 0
-1.5693e-05 -0.000411246 0
-1.56948e-05 -0.000444389 0
0 0 0
1.64999e-06 -1.79368e-06 0
3.21744e-06 -6.77318e-06 0
4.70233e-06 -1.47227e-05 0
6.10463e-06 -2.54772e-05 0
7.42433e-06 -3.88718e-05 0
8.66141e-06 -5.47414e-05 0
9.81586e-06 -7.2921e-05 0
1.08877e-05 -9.32456e-05 0
1.18768e-05 -0.00011555 0
1.27834e-05 -0.00013967 0
1.36073e-05 -0.000165439 0
1.43485e-05 -0.000192694 0
1.50072e-05 -0.000221269 0
1.55832e-05 -0.000250998 0
1.60767e-05 -0.000281718 0
1.64875e-05 -0.000313263 0
1.68158e-05 -0.000345467 0
1.70615e-05 -0.000378167 0
1.72247e-05 -0.000411197 0
1.73054e-05 -0.000444391 0
      </DataArray> 
    </PointData>
    <CellData>
    </CellData>
  </Piece>
  </UnstructuredGrid>
</VTKFile>
