<?xml version="1.0"?>
<VTKFile type="UnstructuredGrid">
  <UnstructuredGrid>
  <Piece NumberOfPoints="42"  NumberOfCells="81">
    <Points>
      <DataArray type="Float64" NumberOfComponents="3" format="ascii">
0 0 0
0.299966 -3.95582e-05 0
0.599934 -0.000146374 0
0.899904 -0.000316908 0
1.19988 -0.000547622 0
1.49985 -0.000834976 0
1.79982 -0.00117543 0
2.0998 -0.00156545 0
2.39978 -0.00200149 0
2.69976 -0.00248002 0
2.99974 -0.00299749 0
3.29972 -0.00355037 0
3.59971 -0.00413511 0
3.8997 -0.00474818 0
4.19969 -0.00538603 0
4.49968 -0.00604513 0
4.79967 -0.00672194 0
5.09966 -0.00741292 0
5.39966 -0.00811453 0
5.69966 -0.00882322 0
5.99965 -0.00953438 0
0 0.3 0
0.300035 0.299962 0
0.600069 0.299855 0
0.900101 0.299684 0
1.20013 0.299453 0
1.50016 0.299166 0
1.80019 0.298825 0
2.10021 0.298435 0
2.40023 0.297999 0
2.70025 0.297521 0
3.00027 0.297003 0
3.30029 0.29645 0
3.60031 0.295865 0
3.90032 0.295252 0
4.20033 0.294614 0
4.50034 0.293955 0
4.80035 0.293278 0
5.10035 0.292587 0
5.40036 0.291886 0
5.70036 0.291177 0
6.00036 0.290465 0
      </DataArray>
    </Points>
    <Cells>
      <DataArray type="Int32" Name="connectivity" format="ascii">
0 1
1 2
2 3
3 4
4 5
5 6
6 7
7 8
8 9
9 10
10 11
11 12
12 13
13 14
14 15
15 16
16 17
17 18
18 19
19 20
21 22
22 23
23 24
24 25
25 26
26 27
27 28
28 29
29 30
30 31
31 32
32 33
33 34
34 35
35 36
36 37
37 38
38 39
39 40
40 41
0 21
0 22
1 22
1 23
2 23
2 24
3 24
3 25
4 25
4 26
5 26
5 27
6 27
6 28
7 28
7 29
8 29
8 30
9 30
9 31
10 31
10 32
11 32
11 33
12 33
12 34
13 34
13 35
14 35
14 36
15 36
15 37
16 37
16 38
17 38
17 39
18 39
18 40
19 40
19 41
20 41
      </DataArray>
      <DataArray type="Int32" Name="offsets" format="ascii">
2
4
6
8
10
12
14
16
18
20
22
24
26
28
30
32
34
36
38
40
42
44
46
48
50
52
54
56
58
60
62
64
66
68
70
72
74
76
78
80
82
84
86
88
90
92
94
96
98
100
102
104
106
108
110
112
114
116
118
120
122
124
126
128
130
132
134
136
138
140
142
144
146
148
150
152
154
156
158
160
162
      </DataArray>
      <DataArray type="UInt8" Name="types" format="ascii">
4
4
4
4
4
4
4
4
4
4
4
4
4
4
4
4
4
4
4
4
4
4
4
4
4
4
4
4
4
4
4
4
4
4
4
4
4
4
4
4
4
4
4
4
4
4
4
4
4
4
4
4
4
4
4
4
4
4
4
4
4
4
4
4
4
4
4
4
4
4
4
4
4
4
4
4
4
4
4
4
4
      </DataArray>
    </Cells>
    <PointData>
      <DataArray type="Float64" NumberOfComponents="3" Name="Displacement" format="ascii">
0 0 0
-3.36401e-05 -3.95582e-05 0
-6.55258e-05 -0.000146374 0
-9.56702e-05 -0.000316908 0
-0.000124084 -0.000547622 0
-0.000150776 -0.000834976 0
-0.000175754 -0.00117543 0
-0.000199021 -0.00156545 0
-0.000220581 -0.00200149 0
-0.000240435 -0.00248002 0
-0.000258583 -0.00299749 0
-0.000275024 -0.00355037 0
-0.000289755 -0.00413511 0
-0.000302773 -0.00474818 0
-0.000314072 -0.00538603 0
-0.000323646 -0.00604513 0
-0.00033149 -0.00672194 0
-0.000337596 -0.00741292 0
-0.000341956 -0.00811453 0
-0.000344564 -0.00882322 0
-0.000345406 -0.00953438 0
0 0 0
3.53934e-05 -3.84809e-05 0
6.90009e-05 -0.000145318 0
0.00010081 -0.000315886 0
0.000130809 -0.000546643 0
0.00015899 -0.000834049 0
0.000185346 -0.00117456 0
0.000209873 -0.00156464 0
0.000232566 -0.00200075 0
0.000253426 -0.00247934 0
0.000272451 -0.00299687 0
0.000289644 -0.00354981 0
0.000305006 -0.00413461 0
0.000318542 -0.00474773 0
0.000330257 -0.00538563 0
0.000340157 -0.00604478 0
0.000348247 -0.00672163 0
0.000354535 -0.00741263 0
0.000359028 -0.00811426 0
0.000361735 -0.00882297 0
0.000362664 -0.00953521 0
      </DataArray> 
    </PointData>
    <CellData>
    </CellData>
  </Piece>
  </UnstructuredGrid>
</VTKFile>
