<?xml version="1.0"?>
<VTKFile type="UnstructuredGrid">
  <UnstructuredGrid>
  <Piece NumberOfPoints="42"  NumberOfCells="81">
    <Points>
      <DataArray type="Float64" NumberOfComponents="3" format="ascii">
0 0 0
0.299953 -5.51388e-05 0
0.599909 -0.000204037 0
0.899867 -0.000441763 0
1.19983 -0.000763383 0
1.49979 -0.00116396 0
1.79975 -0.00163857 0
2.09972 -0.00218228 0
2.39969 -0.00279014 0
2.69966 -0.00345724 0
2.99964 -0.00417862 0
3.29962 -0.00494937 0
3.59959 -0.00576455 0
3.89958 -0.00661921 0
4.19956 -0.00750844 0
4.49955 -0.00842729 0
4.79953 -0.00937083 0
5.09953 -0.0103341 0
5.39952 -0.0113122 0
5.69952 -0.0123002 0
5.99951 -0.0132917 0
0 0.3 0
0.300049 0.299946 0
0.600096 0.299797 0
0.90014 0.29956 0
1.20018 0.299238 0
1.50022 0.298837 0
1.80026 0.298363 0
2.10029 0.297819 0
2.40032 0.297211 0
2.70035 0.296543 0
3.00038 0.295822 0
3.3004 0.295051 0
3.60042 0.294236 0
3.90044 0.293381 0
4.20046 0.292492 0
4.50047 0.291573 0
4.80048 0.290629 0
5.10049 0.289666 0
5.4005 0.288688 0
5.7005 0.2877 0
6.0005 0.286707 0
      </DataArray>
    </Points>
    <Cells>
      <DataArray type="Int32" Name="connectivity" format="ascii">
0 1
1 2
2 3
3 4
4 5
5 6
6 7
7 8
8 9
9 10
10 11
11 12
12 13
13 14
14 15
15 16
16 17
17 18
18 19
19 20
21 22
22 23
23 24
24 25
25 26
26 27
27 28
28 29
29 30
30 31
31 32
32 33
33 34
34 35
35 36
36 37
37 38
38 39
39 40
40 41
0 21
0 22
1 22
1 23
2 23
2 24
3 24
3 25
4 25
4 26
5 26
5 27
6 27
6 28
7 28
7 29
8 29
8 30
9 30
9 31
10 31
10 32
11 32
11 33
12 33
12 34
13 34
13 35
14 35
14 36
15 36
15 37
16 37
16 38
17 38
17 39
18 39
18 40
19 40
19 41
20 41
      </DataArray>
      <DataArray type="Int32" Name="offsets" format="ascii">
2
4
6
8
10
12
14
16
18
20
22
24
26
28
30
32
34
36
38
40
42
44
46
48
50
52
54
56
58
60
62
64
66
68
70
72
74
76
78
80
82
84
86
88
90
92
94
96
98
100
102
104
106
108
110
112
114
116
118
120
122
124
126
128
130
132
134
136
138
140
142
144
146
148
150
152
154
156
158
160
162
      </DataArray>
      <DataArray type="UInt8" Name="types" format="ascii">
4
4
4
4
4
4
4
4
4
4
4
4
4
4
4
4
4
4
4
4
4
4
4
4
4
4
4
4
4
4
4
4
4
4
4
4
4
4
4
4
4
4
4
4
4
4
4
4
4
4
4
4
4
4
4
4
4
4
4
4
4
4
4
4
4
4
4
4
4
4
4
4
4
4
4
4
4
4
4
4
4
      </DataArray>
    </Cells>
    <PointData>
      <DataArray type="Float64" NumberOfComponents="3" Name="Displacement" format="ascii">
0 0 0
-4.6902e-05 -5.51388e-05 0
-9.1367e-05 -0.000204037 0
-0.00013342 -0.000441763 0
-0.000173083 -0.000763383 0
-0.000210372 -0.00116396 0
-0.0002453 -0.00163857 0
-0.000277877 -0.00218228 0
-0.000308109 -0.00279014 0
-0.000335998 -0.00345724 0
-0.000361544 -0.00417862 0
-0.000384745 -0.00494937 0
-0.000405595 -0.00576455 0
-0.000424087 -0.00661921 0
-0.000440211 -0.00750844 0
-0.000453957 -0.00842729 0
-0.000465311 -0.00937083 0
-0.00047426 -0.0103341 0
-0.00048079 -0.0113122 0
-0.000484885 -0.0123002 0
-0.000486523 -0.0132917 0
0 0 0
4.93371e-05 -5.36439e-05 0
9.6176e-05 -0.000202585 0
0.000140492 -0.000440376 0
0.000182263 -0.000762081 0
0.000221473 -0.00116276 0
0.000258109 -0.00163748 0
0.000292161 -0.0021813 0
0.000323623 -0.00278929 0
0.000352493 -0.00345651 0
0.000378771 -0.00417802 0
0.00040246 -0.00494889 0
0.000423565 -0.00576417 0
0.000442092 -0.00661895 0
0.000458053 -0.00750826 0
0.000471457 -0.0084272 0
0.000482318 -0.0093708 0
0.000490648 -0.0103342 0
0.000496464 -0.0113123 0
0.00049978 -0.0123003 0
0.000500612 -0.0132933 0
      </DataArray> 
    </PointData>
    <CellData>
    </CellData>
  </Piece>
  </UnstructuredGrid>
</VTKFile>
