<?xml version="1.0"?>
<VTKFile type="UnstructuredGrid">
  <UnstructuredGrid>
  <Piece NumberOfPoints="42"  NumberOfCells="81">
    <Points>
      <DataArray type="Float64" NumberOfComponents="3" format="ascii">
0 0 0
0.299973 -3.13472e-05 0
0.599948 -0.000115988 0
0.899924 -0.000251117 0
1.1999 -0.000433932 0
1.49988 -0.000661627 0
1.79986 -0.000931398 0
2.09984 -0.00124044 0
2.39983 -0.00158595 0
2.69981 -0.00196512 0
2.9998 -0.00237515 0
3.29978 -0.00281324 0
3.59977 -0.00327657 0
3.89976 -0.00376235 0
4.19975 -0.00426776 0
4.49974 -0.00479001 0
4.79974 -0.00532629 0
5.09973 -0.0058738 0
5.39973 -0.00642972 0
5.69973 -0.00699126 0
5.99973 -0.00755475 0
0 0.3 0
0.300028 0.29997 0
0.600055 0.299885 0
0.90008 0.29975 0
1.2001 0.299567 0
1.50013 0.299339 0
1.80015 0.299069 0
2.10017 0.29876 0
2.40018 0.298415 0
2.7002 0.298035 0
3.00022 0.297625 0
3.30023 0.297187 0
3.60024 0.296724 0
3.90025 0.296238 0
4.20026 0.295733 0
4.50027 0.29521 0
4.80028 0.294674 0
5.10028 0.294127 0
5.40029 0.293571 0
5.70029 0.293009 0
6.00029 0.292445 0
      </DataArray>
    </Points>
    <Cells>
      <DataArray type="Int32" Name="connectivity" format="ascii">
0 1
1 2
2 3
3 4
4 5
5 6
6 7
7 8
8 9
9 10
10 11
11 12
12 13
13 14
14 15
15 16
16 17
17 18
18 19
19 20
21 22
22 23
23 24
24 25
25 26
26 27
27 28
28 29
29 30
30 31
31 32
32 33
33 34
34 35
35 36
36 37
37 38
38 39
39 40
40 41
0 21
0 22
1 22
1 23
2 23
2 24
3 24
3 25
4 25
4 26
5 26
5 27
6 27
6 28
7 28
7 29
8 29
8 30
9 30
9 31
10 31
10 32
11 32
11 33
12 33
12 34
13 34
13 35
14 35
14 36
15 36
15 37
16 37
16 38
17 38
17 39
18 39
18 40
19 40
19 41
20 41
      </DataArray>
      <DataArray type="Int32" Name="offsets" format="ascii">
2
4
6
8
10
12
14
16
18
20
22
24
26
28
30
32
34
36
38
40
42
44
46
48
50
52
54
56
58
60
62
64
66
68
70
72
74
76
78
80
82
84
86
88
90
92
94
96
98
100
102
104
106
108
110
112
114
116
118
120
122
124
126
128
130
132
134
136
138
140
142
144
146
148
150
152
154
156
158
160
162
      </DataArray>
      <DataArray type="UInt8" Name="types" format="ascii">
4
4
4
4
4
4
4
4
4
4
4
4
4
4
4
4
4
4
4
4
4
4
4
4
4
4
4
4
4
4
4
4
4
4
4
4
4
4
4
4
4
4
4
4
4
4
4
4
4
4
4
4
4
4
4
4
4
4
4
4
4
4
4
4
4
4
4
4
4
4
4
4
4
4
4
4
4
4
4
4
4
      </DataArray>
    </Cells>
    <PointData>
      <DataArray type="Float64" NumberOfComponents="3" Name="Displacement" format="ascii">
0 0 0
-2.66538e-05 -3.13472e-05 0
-5.1915e-05 -0.000115988 0
-7.57917e-05 -0.000251117 0
-9.82907e-05 -0.000433932 0
-0.000119418 -0.000661627 0
-0.000139176 -0.000931398 0
-0.00015757 -0.00124044 0
-0.000174601 -0.00158595 0
-0.00019027 -0.00196512 0
-0.000204576 -0.00237515 0
-0.00021752 -0.00281324 0
-0.000229098 -0.00327657 0
-0.00023931 -0.00376235 0
-0.000248151 -0.00426776 0
-0.000255618 -0.00479001 0
-0.000261708 -0.00532629 0
-0.000266415 -0.0058738 0
-0.000269735 -0.00642972 0
-0.000271663 -0.00699126 0
-0.000272192 -0.00755475 0
0 0 0
2.80459e-05 -3.04915e-05 0
5.46793e-05 -0.000115146 0
7.98922e-05 -0.000250297 0
0.000103678 -0.000433138 0
0.000126031 -0.000660866 0
0.000146946 -0.000930672 0
0.000166422 -0.00123975 0
0.000184456 -0.0015853 0
0.000201047 -0.00196452 0
0.000216195 -0.00237459 0
0.000229902 -0.00281271 0
0.000242168 -0.00327608 0
0.000252996 -0.00376189 0
0.00026239 -0.00426733 0
0.000270353 -0.00478961 0
0.000276888 -0.00532591 0
0.000282001 -0.00587343 0
0.000285696 -0.00642937 0
0.000287978 -0.00699092 0
0.000288852 -0.00755527 0
      </DataArray> 
    </PointData>
    <CellData>
    </CellData>
  </Piece>
  </UnstructuredGrid>
</VTKFile>
