<?xml version="1.0"?>
<VTKFile type="UnstructuredGrid">
  <UnstructuredGrid>
  <Piece NumberOfPoints="42"  NumberOfCells="81">
    <Points>
      <DataArray type="Float64" NumberOfComponents="3" format="ascii">
0 0 0
0.29994 -7.08824e-05 0
0.599883 -0.000262311 0
0.899828 -0.000567945 0
1.19978 -0.000981442 0
1.49973 -0.00149646 0
1.79968 -0.00210666 0
2.09964 -0.0028057 0
2.3996 -0.00358723 0
2.69957 -0.00444492 0
2.99953 -0.00537241 0
3.2995 -0.00636337 0
3.59948 -0.00741146 0
3.89945 -0.00851032 0
4.19943 -0.00965363 0
4.49941 -0.010835 0
4.7994 -0.0120482 0
5.09939 -0.0132867 0
5.39938 -0.0145443 0
5.69937 -0.0158147 0
5.99937 -0.0170894 0
0 0.3 0
0.300063 0.299931 0
0.600124 0.29974 0
0.900181 0.299434 0
1.20023 0.29902 0
1.50028 0.298505 0
1.80033 0.297895 0
2.10038 0.297195 0
2.40042 0.296414 0
2.70045 0.295556 0
3.00049 0.294628 0
3.30052 0.293637 0
3.60054 0.292589 0
3.90057 0.29149 0
4.20059 0.290346 0
4.5006 0.289165 0
4.80062 0.287951 0
5.10063 0.286713 0
5.40063 0.285455 0
5.70064 0.284185 0
6.00064 0.282908 0
      </DataArray>
    </Points>
    <Cells>
      <DataArray type="Int32" Name="connectivity" format="ascii">
0 1
1 2
2 3
3 4
4 5
5 6
6 7
7 8
8 9
9 10
10 11
11 12
12 13
13 14
14 15
15 16
16 17
17 18
18 19
19 20
21 22
22 23
23 24
24 25
25 26
26 27
27 28
28 29
29 30
30 31
31 32
32 33
33 34
34 35
35 36
36 37
37 38
38 39
39 40
40 41
0 21
0 22
1 22
1 23
2 23
2 24
3 24
3 25
4 25
4 26
5 26
5 27
6 27
6 28
7 28
7 29
8 29
8 30
9 30
9 31
10 31
10 32
11 32
11 33
12 33
12 34
13 34
13 35
14 35
14 36
15 36
15 37
16 37
16 38
17 38
17 39
18 39
18 40
19 40
19 41
20 41
      </DataArray>
      <DataArray type="Int32" Name="offsets" format="ascii">
2
4
6
8
10
12
14
16
18
20
22
24
26
28
30
32
34
36
38
40
42
44
46
48
50
52
54
56
58
60
62
64
66
68
70
72
74
76
78
80
82
84
86
88
90
92
94
96
98
100
102
104
106
108
110
112
114
116
118
120
122
124
126
128
130
132
134
136
138
140
142
144
146
148
150
152
154
156
158
160
162
      </DataArray>
      <DataArray type="UInt8" Name="types" format="ascii">
4
4
4
4
4
4
4
4
4
4
4
4
4
4
4
4
4
4
4
4
4
4
4
4
4
4
4
4
4
4
4
4
4
4
4
4
4
4
4
4
4
4
4
4
4
4
4
4
4
4
4
4
4
4
4
4
4
4
4
4
4
4
4
4
4
4
4
4
4
4
4
4
4
4
4
4
4
4
4
4
4
      </DataArray>
    </Cells>
    <PointData>
      <DataArray type="Float64" NumberOfComponents="3" Name="Displacement" format="ascii">
0 0 0
-6.03097e-05 -7.08824e-05 0
-0.000117497 -0.000262311 0
-0.000171604 -0.000567945 0
-0.000222666 -0.000981442 0
-0.000270711 -0.00149646 0
-0.000315759 -0.00210666 0
-0.000357827 -0.0028057 0
-0.000396925 -0.00358723 0
-0.000433056 -0.00444492 0
-0.000466222 -0.00537241 0
-0.000496416 -0.00636337 0
-0.000523631 -0.00741146 0
-0.000547854 -0.00851032 0
-0.00056907 -0.00965363 0
-0.000587261 -0.010835 0
-0.000602404 -0.0120482 0
-0.000614479 -0.0132867 0
-0.000623461 -0.0145443 0
-0.000629323 -0.0158147 0
-0.000632031 -0.0170894 0
0 0 0
6.34287e-05 -6.89694e-05 0
0.000123634 -0.000260468 0
0.000180574 -0.00056621 0
0.000234216 -0.000979847 0
0.000284529 -0.00149503 0
0.000331494 -0.00210541 0
0.000375094 -0.00280465 0
0.00041532 -0.00358638 0
0.000452167 -0.00444427 0
0.000485635 -0.00537197 0
0.000515729 -0.00636313 0
0.000542458 -0.0074114 0
0.000565834 -0.00851044 0
0.000585873 -0.0096539 0
0.000602592 -0.0108354 0
0.000616013 -0.0120487 0
0.000626158 -0.0132873 0
0.000633052 -0.014545 0
0.00063672 -0.0158154 0
0.00063719 -0.0170921 0
      </DataArray> 
    </PointData>
    <CellData>
    </CellData>
  </Piece>
  </UnstructuredGrid>
</VTKFile>
