<?xml version="1.0"?>
<VTKFile type="UnstructuredGrid">
  <UnstructuredGrid>
  <Piece NumberOfPoints="42"  NumberOfCells="81">
    <Points>
      <DataArray type="Float64" NumberOfComponents="3" format="ascii">
0 0 0
0.299999 -8.38396e-07 0
0.599999 -3.10179e-06 0
0.899998 -6.71519e-06 0
1.2 -1.16036e-05 0
1.5 -1.7692e-05 0
1.8 -2.49054e-05 0
2.1 -3.31688e-05 0
2.4 -4.24072e-05 0
2.69999 -5.25456e-05 0
2.99999 -6.3509e-05 0
3.29999 -7.52224e-05 0
3.59999 -8.76108e-05 0
3.89999 -0.000100599 0
4.19999 -0.000114113 0
4.49999 -0.000128076 0
4.79999 -0.000142414 0
5.09999 -0.000157053 0
5.39999 -0.000171916 0
5.69999 -0.00018693 0
5.99999 -0.000201995 0
0 0.3 0
0.300001 0.299999 0
0.600001 0.299997 0
0.900002 0.299993 0
1.2 0.299988 0
1.5 0.299982 0
1.8 0.299975 0
2.1 0.299967 0
2.4 0.299958 0
2.70001 0.299947 0
3.00001 0.299937 0
3.30001 0.299925 0
3.60001 0.299912 0
3.90001 0.299899 0
4.20001 0.299886 0
4.50001 0.299872 0
4.80001 0.299858 0
5.10001 0.299843 0
5.40001 0.299828 0
5.70001 0.299813 0
6.00001 0.299798 0
      </DataArray>
    </Points>
    <Cells>
      <DataArray type="Int32" Name="connectivity" format="ascii">
0 1
1 2
2 3
3 4
4 5
5 6
6 7
7 8
8 9
9 10
10 11
11 12
12 13
13 14
14 15
15 16
16 17
17 18
18 19
19 20
21 22
22 23
23 24
24 25
25 26
26 27
27 28
28 29
29 30
30 31
31 32
32 33
33 34
34 35
35 36
36 37
37 38
38 39
39 40
40 41
0 21
0 22
1 22
1 23
2 23
2 24
3 24
3 25
4 25
4 26
5 26
5 27
6 27
6 28
7 28
7 29
8 29
8 30
9 30
9 31
10 31
10 32
11 32
11 33
12 33
12 34
13 34
13 35
14 35
14 36
15 36
15 37
16 37
16 38
17 38
17 39
18 39
18 40
19 40
19 41
20 41
      </DataArray>
      <DataArray type="Int32" Name="offsets" format="ascii">
2
4
6
8
10
12
14
16
18
20
22
24
26
28
30
32
34
36
38
40
42
44
46
48
50
52
54
56
58
60
62
64
66
68
70
72
74
76
78
80
82
84
86
88
90
92
94
96
98
100
102
104
106
108
110
112
114
116
118
120
122
124
126
128
130
132
134
136
138
140
142
144
146
148
150
152
154
156
158
160
162
      </DataArray>
      <DataArray type="UInt8" Name="types" format="ascii">
4
4
4
4
4
4
4
4
4
4
4
4
4
4
4
4
4
4
4
4
4
4
4
4
4
4
4
4
4
4
4
4
4
4
4
4
4
4
4
4
4
4
4
4
4
4
4
4
4
4
4
4
4
4
4
4
4
4
4
4
4
4
4
4
4
4
4
4
4
4
4
4
4
4
4
4
4
4
4
4
4
      </DataArray>
    </Cells>
    <PointData>
      <DataArray type="Float64" NumberOfComponents="3" Name="Displacement" format="ascii">
0 0 0
-7.12505e-07 -8.38396e-07 0
-1.38752e-06 -3.10179e-06 0
-2.02504e-06 -6.71519e-06 0
-2.62508e-06 -1.16036e-05 0
-3.18765e-06 -1.7692e-05 0
-3.71274e-06 -2.49054e-05 0
-4.20035e-06 -3.31688e-05 0
-4.65049e-06 -4.24072e-05 0
-5.06317e-06 -5.25456e-05 0
-5.43837e-06 -6.3509e-05 0
-5.7761e-06 -7.52224e-05 0
-6.07635e-06 -8.76108e-05 0
-6.33914e-06 -0.000100599 0
-6.56444e-06 -0.000114113 0
-6.75227e-06 -0.000128076 0
-6.90261e-06 -0.000142414 0
-7.01547e-06 -0.000157053 0
-7.09083e-06 -0.000171916 0
-7.12871e-06 -0.00018693 0
-7.12909e-06 -0.000201995 0
0 0 0
7.49997e-07 -8.15311e-07 0
1.46249e-06 -3.07872e-06 0
2.13746e-06 -6.69213e-06 0
2.77492e-06 -1.15805e-05 0
3.37486e-06 -1.7669e-05 0
3.93727e-06 -2.48824e-05 0
4.46216e-06 -3.31458e-05 0
4.94952e-06 -4.23842e-05 0
5.39935e-06 -5.25227e-05 0
5.81165e-06 -6.34861e-05 0
6.18642e-06 -7.51995e-05 0
6.52367e-06 -8.7588e-05 0
6.82339e-06 -0.000100576 0
7.08558e-06 -0.00011409 0
7.31026e-06 -0.000128053 0
7.49742e-06 -0.000142392 0
7.64706e-06 -0.00015703 0
7.7592e-06 -0.000171894 0
7.83382e-06 -0.000186907 0
7.87095e-06 -0.000201995 0
      </DataArray> 
    </PointData>
    <CellData>
    </CellData>
  </Piece>
  </UnstructuredGrid>
</VTKFile>
