<?xml version="1.0"?>
<VTKFile type="UnstructuredGrid">
  <UnstructuredGrid>
  <Piece NumberOfPoints="42"  NumberOfCells="81">
    <Points>
      <DataArray type="Float64" NumberOfComponents="3" format="ascii">
0 0 0
0.299976 -2.76603e-05 0
0.599954 -0.000102344 0
0.899933 -0.000221577 0
1.19991 -0.000382886 0
1.49989 -0.000583794 0
1.79988 -0.000821829 0
2.09986 -0.00109451 0
2.39985 -0.00139938 0
2.69983 -0.00173394 0
2.99982 -0.00209573 0
3.29981 -0.00248228 0
3.5998 -0.0028911 0
3.89979 -0.00331972 0
4.19978 -0.00376568 0
4.49977 -0.00422648 0
4.79977 -0.00469967 0
5.09977 -0.00518276 0
5.39976 -0.00567328 0
5.69976 -0.00616875 0
5.99976 -0.00666594 0
0 0.3 0
0.300025 0.299973 0
0.600048 0.299898 0
0.90007 0.299779 0
1.20009 0.299618 0
1.50011 0.299417 0
1.80013 0.299179 0
2.10015 0.298906 0
2.40016 0.298601 0
2.70018 0.298267 0
3.00019 0.297905 0
3.3002 0.297518 0
3.60021 0.297109 0
3.90022 0.296681 0
4.20023 0.296235 0
4.50024 0.295774 0
4.80024 0.295301 0
5.10025 0.294818 0
5.40025 0.294327 0
5.70025 0.293832 0
6.00026 0.293334 0
      </DataArray>
    </Points>
    <Cells>
      <DataArray type="Int32" Name="connectivity" format="ascii">
0 1
1 2
2 3
3 4
4 5
5 6
6 7
7 8
8 9
9 10
10 11
11 12
12 13
13 14
14 15
15 16
16 17
17 18
18 19
19 20
21 22
22 23
23 24
24 25
25 26
26 27
27 28
28 29
29 30
30 31
31 32
32 33
33 34
34 35
35 36
36 37
37 38
38 39
39 40
40 41
0 21
0 22
1 22
1 23
2 23
2 24
3 24
3 25
4 25
4 26
5 26
5 27
6 27
6 28
7 28
7 29
8 29
8 30
9 30
9 31
10 31
10 32
11 32
11 33
12 33
12 34
13 34
13 35
14 35
14 36
15 36
15 37
16 37
16 38
17 38
17 39
18 39
18 40
19 40
19 41
20 41
      </DataArray>
      <DataArray type="Int32" Name="offsets" format="ascii">
2
4
6
8
10
12
14
16
18
20
22
24
26
28
30
32
34
36
38
40
42
44
46
48
50
52
54
56
58
60
62
64
66
68
70
72
74
76
78
80
82
84
86
88
90
92
94
96
98
100
102
104
106
108
110
112
114
116
118
120
122
124
126
128
130
132
134
136
138
140
142
144
146
148
150
152
154
156
158
160
162
      </DataArray>
      <DataArray type="UInt8" Name="types" format="ascii">
4
4
4
4
4
4
4
4
4
4
4
4
4
4
4
4
4
4
4
4
4
4
4
4
4
4
4
4
4
4
4
4
4
4
4
4
4
4
4
4
4
4
4
4
4
4
4
4
4
4
4
4
4
4
4
4
4
4
4
4
4
4
4
4
4
4
4
4
4
4
4
4
4
4
4
4
4
4
4
4
4
      </DataArray>
    </Cells>
    <PointData>
      <DataArray type="Float64" NumberOfComponents="3" Name="Displacement" format="ascii">
0 0 0
-2.35174e-05 -2.76603e-05 0
-4.5805e-05 -0.000102344 0
-6.68691e-05 -0.000221577 0
-8.67151e-05 -0.000382886 0
-0.000105347 -0.000583794 0
-0.000122769 -0.000821829 0
-0.000138982 -0.00109451 0
-0.000153988 -0.00139938 0
-0.000167788 -0.00173394 0
-0.000180382 -0.00209573 0
-0.00019177 -0.00248228 0
-0.000201949 -0.0028911 0
-0.000210918 -0.00331972 0
-0.000218675 -0.00376568 0
-0.000225217 -0.00422648 0
-0.00023054 -0.00469967 0
-0.000234642 -0.00518276 0
-0.000237518 -0.00567328 0
-0.000239164 -0.00616875 0
-0.000239576 -0.00666594 0
0 0 0
2.47468e-05 -2.69044e-05 0
4.82483e-05 -0.000101599 0
7.04983e-05 -0.000220849 0
9.14915e-05 -0.000382178 0
0.000111224 -0.000583112 0
0.000129691 -0.000821174 0
0.000146892 -0.00109389 0
0.000162825 -0.00139878 0
0.000177489 -0.00173338 0
0.000190884 -0.0020952 0
0.000203011 -0.00248177 0
0.000213871 -0.00289063 0
0.000223467 -0.00331928 0
0.000231799 -0.00376525 0
0.000238872 -0.00422608 0
0.000244688 -0.00469929 0
0.000249251 -0.00518239 0
0.000252564 -0.00567292 0
0.000254632 -0.0061684 0
0.000255458 -0.00666635 0
      </DataArray> 
    </PointData>
    <CellData>
    </CellData>
  </Piece>
  </UnstructuredGrid>
</VTKFile>
