<?xml version="1.0"?>
<VTKFile type="UnstructuredGrid">
  <UnstructuredGrid>
  <Piece NumberOfPoints="42"  NumberOfCells="81">
    <Points>
      <DataArray type="Float64" NumberOfComponents="3" format="ascii">
0 0 0
0.299973 -3.15148e-05 0
0.599948 -0.000116608 0
0.899924 -0.00025246 0
1.1999 -0.000436252 0
1.49988 -0.000665165 0
1.79986 -0.000936378 0
2.09984 -0.00124707 0
2.39982 -0.00159443 0
2.69981 -0.00197563 0
2.99979 -0.00238785 0
3.29978 -0.00282828 0
3.59977 -0.00329409 0
3.89976 -0.00378246 0
4.19975 -0.00429058 0
4.49974 -0.00481563 0
4.79974 -0.00535477 0
5.09973 -0.00590521 0
5.39973 -0.00646411 0
5.69973 -0.00702865 0
5.99973 -0.00759515 0
0 0.3 0
0.300028 0.299969 0
0.600055 0.299884 0
0.90008 0.299748 0
1.2001 0.299565 0
1.50013 0.299336 0
1.80015 0.299064 0
2.10017 0.298754 0
2.40019 0.298406 0
2.7002 0.298025 0
3.00022 0.297613 0
3.30023 0.297172 0
3.60024 0.296706 0
3.90025 0.296218 0
4.20026 0.29571 0
4.50027 0.295185 0
4.80028 0.294646 0
5.10028 0.294095 0
5.40029 0.293536 0
5.70029 0.292972 0
6.00029 0.292404 0
      </DataArray>
    </Points>
    <Cells>
      <DataArray type="Int32" Name="connectivity" format="ascii">
0 1
1 2
2 3
3 4
4 5
5 6
6 7
7 8
8 9
9 10
10 11
11 12
12 13
13 14
14 15
15 16
16 17
17 18
18 19
19 20
21 22
22 23
23 24
24 25
25 26
26 27
27 28
28 29
29 30
30 31
31 32
32 33
33 34
34 35
35 36
36 37
37 38
38 39
39 40
40 41
0 21
0 22
1 22
1 23
2 23
2 24
3 24
3 25
4 25
4 26
5 26
5 27
6 27
6 28
7 28
7 29
8 29
8 30
9 30
9 31
10 31
10 32
11 32
11 33
12 33
12 34
13 34
13 35
14 35
14 36
15 36
15 37
16 37
16 38
17 38
17 39
18 39
18 40
19 40
19 41
20 41
      </DataArray>
      <DataArray type="Int32" Name="offsets" format="ascii">
2
4
6
8
10
12
14
16
18
20
22
24
26
28
30
32
34
36
38
40
42
44
46
48
50
52
54
56
58
60
62
64
66
68
70
72
74
76
78
80
82
84
86
88
90
92
94
96
98
100
102
104
106
108
110
112
114
116
118
120
122
124
126
128
130
132
134
136
138
140
142
144
146
148
150
152
154
156
158
160
162
      </DataArray>
      <DataArray type="UInt8" Name="types" format="ascii">
4
4
4
4
4
4
4
4
4
4
4
4
4
4
4
4
4
4
4
4
4
4
4
4
4
4
4
4
4
4
4
4
4
4
4
4
4
4
4
4
4
4
4
4
4
4
4
4
4
4
4
4
4
4
4
4
4
4
4
4
4
4
4
4
4
4
4
4
4
4
4
4
4
4
4
4
4
4
4
4
4
      </DataArray>
    </Cells>
    <PointData>
      <DataArray type="Float64" NumberOfComponents="3" Name="Displacement" format="ascii">
0 0 0
-2.67964e-05 -3.15148e-05 0
-5.21927e-05 -0.000116608 0
-7.61973e-05 -0.00025246 0
-9.88169e-05 -0.000436252 0
-0.000120057 -0.000665165 0
-0.000139922 -0.000936378 0
-0.000158415 -0.00124707 0
-0.000175538 -0.00159443 0
-0.000191292 -0.00197563 0
-0.000205677 -0.00238785 0
-0.000218691 -0.00282828 0
-0.000230334 -0.00329409 0
-0.000240602 -0.00378246 0
-0.000249493 -0.00429058 0
-0.000257002 -0.00481563 0
-0.000263127 -0.00535477 0
-0.000267862 -0.00590521 0
-0.000271203 -0.00646411 0
-0.000273144 -0.00702865 0
-0.000273679 -0.00759515 0
0 0 0
2.81958e-05 -3.06546e-05 0
5.49716e-05 -0.000115761 0
8.03191e-05 -0.000251635 0
0.000104232 -0.000435455 0
0.000126703 -0.0006644 0
0.00014773 -0.00093565 0
0.00016731 -0.00124638 0
0.000185439 -0.00159378 0
0.000202117 -0.00197502 0
0.000217345 -0.00238728 0
0.000231123 -0.00282775 0
0.000243453 -0.0032936 0
0.000254337 -0.003782 0
0.000263779 -0.00429015 0
0.000271781 -0.00481522 0
0.000278349 -0.0053544 0
0.000283487 -0.00590485 0
0.000287199 -0.00646376 0
0.00028949 -0.00702831 0
0.000290366 -0.00759568 0
      </DataArray> 
    </PointData>
    <CellData>
    </CellData>
  </Piece>
  </UnstructuredGrid>
</VTKFile>
