<?xml version="1.0"?>
<VTKFile type="UnstructuredGrid">
  <UnstructuredGrid>
  <Piece NumberOfPoints="42"  NumberOfCells="81">
    <Points>
      <DataArray type="Float64" NumberOfComponents="3" format="ascii">
0 0 0
0.299974 -3.08445e-05 0
0.599949 -0.000114127 0
0.899925 -0.000247089 0
1.1999 -0.000426971 0
1.49988 -0.000651013 0
1.79986 -0.000916457 0
2.09984 -0.00122054 0
2.39983 -0.00156051 0
2.69981 -0.0019336 0
2.9998 -0.00233705 0
3.29979 -0.00276811 0
3.59977 -0.003224 0
3.89976 -0.00370199 0
4.19976 -0.0041993 0
4.49975 -0.00471317 0
4.79974 -0.00524084 0
5.09974 -0.00577956 0
5.39973 -0.00632657 0
5.69973 -0.0068791 0
5.99973 -0.00743355 0
0 0.3 0
0.300028 0.29997 0
0.600054 0.299887 0
0.900079 0.299754 0
1.2001 0.299574 0
1.50012 0.29935 0
1.80014 0.299084 0
2.10016 0.29878 0
2.40018 0.29844 0
2.7002 0.298067 0
3.00021 0.297664 0
3.30023 0.297232 0
3.60024 0.296776 0
3.90025 0.296298 0
4.20026 0.295801 0
4.50027 0.295287 0
4.80027 0.29476 0
5.10028 0.294221 0
5.40028 0.293674 0
5.70028 0.293121 0
6.00028 0.292566 0
      </DataArray>
    </Points>
    <Cells>
      <DataArray type="Int32" Name="connectivity" format="ascii">
0 1
1 2
2 3
3 4
4 5
5 6
6 7
7 8
8 9
9 10
10 11
11 12
12 13
13 14
14 15
15 16
16 17
17 18
18 19
19 20
21 22
22 23
23 24
24 25
25 26
26 27
27 28
28 29
29 30
30 31
31 32
32 33
33 34
34 35
35 36
36 37
37 38
38 39
39 40
40 41
0 21
0 22
1 22
1 23
2 23
2 24
3 24
3 25
4 25
4 26
5 26
5 27
6 27
6 28
7 28
7 29
8 29
8 30
9 30
9 31
10 31
10 32
11 32
11 33
12 33
12 34
13 34
13 35
14 35
14 36
15 36
15 37
16 37
16 38
17 38
17 39
18 39
18 40
19 40
19 41
20 41
      </DataArray>
      <DataArray type="Int32" Name="offsets" format="ascii">
2
4
6
8
10
12
14
16
18
20
22
24
26
28
30
32
34
36
38
40
42
44
46
48
50
52
54
56
58
60
62
64
66
68
70
72
74
76
78
80
82
84
86
88
90
92
94
96
98
100
102
104
106
108
110
112
114
116
118
120
122
124
126
128
130
132
134
136
138
140
142
144
146
148
150
152
154
156
158
160
162
      </DataArray>
      <DataArray type="UInt8" Name="types" format="ascii">
4
4
4
4
4
4
4
4
4
4
4
4
4
4
4
4
4
4
4
4
4
4
4
4
4
4
4
4
4
4
4
4
4
4
4
4
4
4
4
4
4
4
4
4
4
4
4
4
4
4
4
4
4
4
4
4
4
4
4
4
4
4
4
4
4
4
4
4
4
4
4
4
4
4
4
4
4
4
4
4
4
      </DataArray>
    </Cells>
    <PointData>
      <DataArray type="Float64" NumberOfComponents="3" Name="Displacement" format="ascii">
0 0 0
-2.62261e-05 -3.08445e-05 0
-5.10818e-05 -0.000114127 0
-7.45749e-05 -0.000247089 0
-9.6712e-05 -0.000426971 0
-0.000117499 -0.000651013 0
-0.000136938 -0.000916457 0
-0.000155035 -0.00122054 0
-0.000171789 -0.00156051 0
-0.000187203 -0.0019336 0
-0.000201275 -0.00233705 0
-0.000214006 -0.00276811 0
-0.000225393 -0.003224 0
-0.000235434 -0.00370199 0
-0.000244127 -0.0041993 0
-0.000251467 -0.00471317 0
-0.000257452 -0.00524084 0
-0.000262076 -0.00577956 0
-0.000265334 -0.00632657 0
-0.000267223 -0.0068791 0
-0.000267735 -0.00743355 0
0 0 0
2.7596e-05 -3.00024e-05 0
5.38024e-05 -0.000113298 0
7.86113e-05 -0.000246281 0
0.000102016 -0.000426189 0
0.000124012 -0.000650263 0
0.000144594 -0.000915741 0
0.00016376 -0.00121986 0
0.000181508 -0.00155987 0
0.000197836 -0.001933 0
0.000212746 -0.00233649 0
0.000226237 -0.00276758 0
0.000238312 -0.00322351 0
0.000248973 -0.00370153 0
0.000258223 -0.00419887 0
0.000266065 -0.00471276 0
0.000272503 -0.00524046 0
0.000277542 -0.0057792 0
0.000281185 -0.00632622 0
0.000283439 -0.00687876 0
0.000284308 -0.00743406 0
      </DataArray> 
    </PointData>
    <CellData>
    </CellData>
  </Piece>
  </UnstructuredGrid>
</VTKFile>
