<?xml version="1.0"?>
<VTKFile type="UnstructuredGrid">
  <UnstructuredGrid>
  <Piece NumberOfPoints="42"  NumberOfCells="81">
    <Points>
      <DataArray type="Float64" NumberOfComponents="3" format="ascii">
0 0 0
0.299937 -7.45664e-05 0
0.599876 -0.000275948 0
0.899819 -0.000597474 0
1.19977 -0.00103247 0
1.49972 -0.00157428 0
1.79967 -0.00221621 0
2.09962 -0.0029516 0
2.39958 -0.00377378 0
2.69954 -0.00467607 0
2.99951 -0.0056518 0
3.29948 -0.0066943 0
3.59945 -0.0077969 0
3.89942 -0.00895292 0
4.1994 -0.0101557 0
4.49938 -0.0113985 0
4.79937 -0.0126748 0
5.09935 -0.0139777 0
5.39934 -0.0153008 0
5.69934 -0.0166372 0
5.99933 -0.0179782 0
0 0.3 0
0.300067 0.299927 0
0.60013 0.299726 0
0.90019 0.299404 0
1.20025 0.298969 0
1.5003 0.298427 0
1.80035 0.297785 0
2.10039 0.297049 0
2.40044 0.296227 0
2.70048 0.295325 0
3.00051 0.294349 0
3.30054 0.293306 0
3.60057 0.292203 0
3.90059 0.291047 0
4.20062 0.289844 0
4.50063 0.288601 0
4.80065 0.287325 0
5.10066 0.286021 0
5.40066 0.284698 0
5.70067 0.283362 0
6.00067 0.282019 0
      </DataArray>
    </Points>
    <Cells>
      <DataArray type="Int32" Name="connectivity" format="ascii">
0 1
1 2
2 3
3 4
4 5
5 6
6 7
7 8
8 9
9 10
10 11
11 12
12 13
13 14
14 15
15 16
16 17
17 18
18 19
19 20
21 22
22 23
23 24
24 25
25 26
26 27
27 28
28 29
29 30
30 31
31 32
32 33
33 34
34 35
35 36
36 37
37 38
38 39
39 40
40 41
0 21
0 22
1 22
1 23
2 23
2 24
3 24
3 25
4 25
4 26
5 26
5 27
6 27
6 28
7 28
7 29
8 29
8 30
9 30
9 31
10 31
10 32
11 32
11 33
12 33
12 34
13 34
13 35
14 35
14 36
15 36
15 37
16 37
16 38
17 38
17 39
18 39
18 40
19 40
19 41
20 41
      </DataArray>
      <DataArray type="Int32" Name="offsets" format="ascii">
2
4
6
8
10
12
14
16
18
20
22
24
26
28
30
32
34
36
38
40
42
44
46
48
50
52
54
56
58
60
62
64
66
68
70
72
74
76
78
80
82
84
86
88
90
92
94
96
98
100
102
104
106
108
110
112
114
116
118
120
122
124
126
128
130
132
134
136
138
140
142
144
146
148
150
152
154
156
158
160
162
      </DataArray>
      <DataArray type="UInt8" Name="types" format="ascii">
4
4
4
4
4
4
4
4
4
4
4
4
4
4
4
4
4
4
4
4
4
4
4
4
4
4
4
4
4
4
4
4
4
4
4
4
4
4
4
4
4
4
4
4
4
4
4
4
4
4
4
4
4
4
4
4
4
4
4
4
4
4
4
4
4
4
4
4
4
4
4
4
4
4
4
4
4
4
4
4
4
      </DataArray>
    </Cells>
    <PointData>
      <DataArray type="Float64" NumberOfComponents="3" Name="Displacement" format="ascii">
0 0 0
-6.34482e-05 -7.45664e-05 0
-0.000123614 -0.000275948 0
-0.000180545 -0.000597474 0
-0.000234279 -0.00103247 0
-0.000284847 -0.00157428 0
-0.000332274 -0.00221621 0
-0.000376575 -0.0029516 0
-0.000417762 -0.00377378 0
-0.00045584 -0.00467607 0
-0.000490809 -0.0056518 0
-0.000522664 -0.0066943 0
-0.000551395 -0.0077969 0
-0.000576988 -0.00895292 0
-0.000599427 -0.0101557 0
-0.00061869 -0.0113985 0
-0.000634756 -0.0126748 0
-0.000647599 -0.0139777 0
-0.000657192 -0.0153008 0
-0.000663506 -0.0166372 0
-0.000666503 -0.0179782 0
0 0 0
6.67264e-05 -7.25561e-05 0
0.000130059 -0.000274015 0
0.000189952 -0.000595661 0
0.000246367 -0.00103082 0
0.000299273 -0.0015728 0
0.000348646 -0.00221493 0
0.000394469 -0.00295054 0
0.000436731 -0.00377294 0
0.000475428 -0.00467546 0
0.000510558 -0.00565142 0
0.000542129 -0.00669414 0
0.000570148 -0.00779694 0
0.00059463 -0.00895315 0
0.000615592 -0.0101561 0
0.000633054 -0.0113991 0
0.000647039 -0.0126755 0
0.000657573 -0.0139785 0
0.000664682 -0.0153016 0
0.000668394 -0.0166381 0
0.00066874 -0.0179812 0
      </DataArray> 
    </PointData>
    <CellData>
    </CellData>
  </Piece>
  </UnstructuredGrid>
</VTKFile>
