<?xml version="1.0"?>
<VTKFile type="UnstructuredGrid">
  <UnstructuredGrid>
  <Piece NumberOfPoints="42"  NumberOfCells="81">
    <Points>
      <DataArray type="Float64" NumberOfComponents="3" format="ascii">
0 0 0
0.299936 -7.54037e-05 0
0.599875 -0.000279047 0
0.899817 -0.000604185 0
1.19976 -0.00104407 0
1.49971 -0.00159196 0
1.79966 -0.00224111 0
2.09962 -0.00298476 0
2.39958 -0.00381617 0
2.69954 -0.0047286 0
2.9995 -0.0057153 0
3.29947 -0.00676951 0
3.59944 -0.0078845 0
3.89942 -0.00905351 0
4.19939 -0.0102698 0
4.49937 -0.0115266 0
4.79936 -0.0128172 0
5.09934 -0.0141348 0
5.39934 -0.0154727 0
5.69933 -0.0168241 0
5.99933 -0.0181802 0
0 0.3 0
0.300067 0.299927 0
0.600132 0.299723 0
0.900192 0.299398 0
1.20025 0.298958 0
1.5003 0.29841 0
1.80035 0.29776 0
2.1004 0.297016 0
2.40044 0.296185 0
2.70048 0.295272 0
3.00052 0.294285 0
3.30055 0.293231 0
3.60058 0.292115 0
3.9006 0.290946 0
4.20062 0.28973 0
4.50064 0.288473 0
4.80065 0.287182 0
5.10066 0.285864 0
5.40067 0.284526 0
5.70068 0.283175 0
6.00068 0.281817 0
      </DataArray>
    </Points>
    <Cells>
      <DataArray type="Int32" Name="connectivity" format="ascii">
0 1
1 2
2 3
3 4
4 5
5 6
6 7
7 8
8 9
9 10
10 11
11 12
12 13
13 14
14 15
15 16
16 17
17 18
18 19
19 20
21 22
22 23
23 24
24 25
25 26
26 27
27 28
28 29
29 30
30 31
31 32
32 33
33 34
34 35
35 36
36 37
37 38
38 39
39 40
40 41
0 21
0 22
1 22
1 23
2 23
2 24
3 24
3 25
4 25
4 26
5 26
5 27
6 27
6 28
7 28
7 29
8 29
8 30
9 30
9 31
10 31
10 32
11 32
11 33
12 33
12 34
13 34
13 35
14 35
14 36
15 36
15 37
16 37
16 38
17 38
17 39
18 39
18 40
19 40
19 41
20 41
      </DataArray>
      <DataArray type="Int32" Name="offsets" format="ascii">
2
4
6
8
10
12
14
16
18
20
22
24
26
28
30
32
34
36
38
40
42
44
46
48
50
52
54
56
58
60
62
64
66
68
70
72
74
76
78
80
82
84
86
88
90
92
94
96
98
100
102
104
106
108
110
112
114
116
118
120
122
124
126
128
130
132
134
136
138
140
142
144
146
148
150
152
154
156
158
160
162
      </DataArray>
      <DataArray type="UInt8" Name="types" format="ascii">
4
4
4
4
4
4
4
4
4
4
4
4
4
4
4
4
4
4
4
4
4
4
4
4
4
4
4
4
4
4
4
4
4
4
4
4
4
4
4
4
4
4
4
4
4
4
4
4
4
4
4
4
4
4
4
4
4
4
4
4
4
4
4
4
4
4
4
4
4
4
4
4
4
4
4
4
4
4
4
4
4
      </DataArray>
    </Cells>
    <PointData>
      <DataArray type="Float64" NumberOfComponents="3" Name="Displacement" format="ascii">
0 0 0
-6.41615e-05 -7.54037e-05 0
-0.000125005 -0.000279047 0
-0.000182578 -0.000604185 0
-0.000236919 -0.00104407 0
-0.000288061 -0.00159196 0
-0.000336028 -0.00224111 0
-0.000380837 -0.00298476 0
-0.0004225 -0.00381617 0
-0.000461022 -0.0047286 0
-0.000496402 -0.0057153 0
-0.000528635 -0.00676951 0
-0.000557712 -0.0078845 0
-0.000583618 -0.00905351 0
-0.000606336 -0.0102698 0
-0.000625846 -0.0115266 0
-0.000642123 -0.0128172 0
-0.000655142 -0.0141348 0
-0.000664876 -0.0154727 0
-0.000671295 -0.0168241 0
-0.00067436 -0.0181802 0
0 0 0
6.74759e-05 -7.33712e-05 0
0.000131519 -0.000277094 0
0.000192083 -0.000602355 0
0.000249128 -0.0010424 0
0.000302623 -0.00159047 0
0.000352543 -0.00223983 0
0.000398871 -0.0029837 0
0.000441595 -0.00381535 0
0.000480711 -0.00472801 0
0.000516218 -0.00571493 0
0.000548123 -0.00676937 0
0.000576434 -0.00788457 0
0.000601166 -0.00905377 0
0.000622336 -0.0102702 0
0.000639965 -0.0115272 0
0.000654077 -0.0128179 0
0.000664697 -0.0141356 0
0.000671852 -0.0154736 0
0.000675573 -0.0168251 0
0.000675889 -0.0181833 0
      </DataArray> 
    </PointData>
    <CellData>
    </CellData>
  </Piece>
  </UnstructuredGrid>
</VTKFile>
