<?xml version="1.0"?>
<VTKFile type="UnstructuredGrid">
  <UnstructuredGrid>
  <Piece NumberOfPoints="42"  NumberOfCells="81">
    <Points>
      <DataArray type="Float64" NumberOfComponents="3" format="ascii">
0 0 0
0.299953 -5.54739e-05 0
0.599908 -0.000205277 0
0.899866 -0.000444448 0
1.19983 -0.000768023 0
1.49979 -0.00117104 0
1.79975 -0.00164853 0
2.09972 -0.00219554 0
2.39969 -0.0028071 0
2.69966 -0.00347825 0
2.99964 -0.00420402 0
3.29961 -0.00497946 0
3.59959 -0.00579959 0
3.89957 -0.00665945 0
4.19956 -0.00755408 0
4.49954 -0.00847852 0
4.79953 -0.00942779 0
5.09952 -0.0103969 0
5.39952 -0.011381 0
5.69951 -0.012375 0
5.99951 -0.0133725 0
0 0.3 0
0.30005 0.299946 0
0.600097 0.299796 0
0.900141 0.299557 0
1.20018 0.299233 0
1.50022 0.29883 0
1.80026 0.298353 0
2.10029 0.297805 0
2.40033 0.297194 0
2.70035 0.296522 0
3.00038 0.295797 0
3.3004 0.295021 0
3.60043 0.294201 0
3.90044 0.293341 0
4.20046 0.292446 0
4.50047 0.291522 0
4.80049 0.290572 0
5.10049 0.289603 0
5.4005 0.288619 0
5.7005 0.287625 0
6.0005 0.286626 0
      </DataArray>
    </Points>
    <Cells>
      <DataArray type="Int32" Name="connectivity" format="ascii">
0 1
1 2
2 3
3 4
4 5
5 6
6 7
7 8
8 9
9 10
10 11
11 12
12 13
13 14
14 15
15 16
16 17
17 18
18 19
19 20
21 22
22 23
23 24
24 25
25 26
26 27
27 28
28 29
29 30
30 31
31 32
32 33
33 34
34 35
35 36
36 37
37 38
38 39
39 40
40 41
0 21
0 22
1 22
1 23
2 23
2 24
3 24
3 25
4 25
4 26
5 26
5 27
6 27
6 28
7 28
7 29
8 29
8 30
9 30
9 31
10 31
10 32
11 32
11 33
12 33
12 34
13 34
13 35
14 35
14 36
15 36
15 37
16 37
16 38
17 38
17 39
18 39
18 40
19 40
19 41
20 41
      </DataArray>
      <DataArray type="Int32" Name="offsets" format="ascii">
2
4
6
8
10
12
14
16
18
20
22
24
26
28
30
32
34
36
38
40
42
44
46
48
50
52
54
56
58
60
62
64
66
68
70
72
74
76
78
80
82
84
86
88
90
92
94
96
98
100
102
104
106
108
110
112
114
116
118
120
122
124
126
128
130
132
134
136
138
140
142
144
146
148
150
152
154
156
158
160
162
      </DataArray>
      <DataArray type="UInt8" Name="types" format="ascii">
4
4
4
4
4
4
4
4
4
4
4
4
4
4
4
4
4
4
4
4
4
4
4
4
4
4
4
4
4
4
4
4
4
4
4
4
4
4
4
4
4
4
4
4
4
4
4
4
4
4
4
4
4
4
4
4
4
4
4
4
4
4
4
4
4
4
4
4
4
4
4
4
4
4
4
4
4
4
4
4
4
      </DataArray>
    </Cells>
    <PointData>
      <DataArray type="Float64" NumberOfComponents="3" Name="Displacement" format="ascii">
0 0 0
-4.71873e-05 -5.54739e-05 0
-9.19228e-05 -0.000205277 0
-0.000134232 -0.000444448 0
-0.000174137 -0.000768023 0
-0.000211655 -0.00117104 0
-0.000246797 -0.00164853 0
-0.000279575 -0.00219554 0
-0.000309995 -0.0028071 0
-0.000338058 -0.00347825 0
-0.000363765 -0.00420402 0
-0.000387113 -0.00497946 0
-0.000408096 -0.00579959 0
-0.000426708 -0.00665945 0
-0.000442938 -0.00755408 0
-0.000456776 -0.00847852 0
-0.000468209 -0.00942779 0
-0.000477222 -0.0103969 0
-0.000483801 -0.011381 0
-0.00048793 -0.012375 0
-0.000489589 -0.0133725 0
0 0 0
4.9637e-05 -5.397e-05 0
9.67603e-05 -0.000203816 0
0.000141345 -0.000443053 0
0.000183369 -0.000766714 0
0.000222815 -0.00116983 0
0.000259672 -0.00164744 0
0.000293928 -0.00219457 0
0.000325578 -0.00280625 0
0.000354619 -0.00347753 0
0.000381051 -0.00420342 0
0.000404878 -0.00497898 0
0.000426104 -0.00579922 0
0.000444737 -0.00665919 0
0.000460786 -0.00755391 0
0.000474264 -0.00847843 0
0.000485181 -0.00942778 0
0.000493553 -0.010397 0
0.000499394 -0.0113811 0
0.000502721 -0.0123751 0
0.000503548 -0.0133741 0
      </DataArray> 
    </PointData>
    <CellData>
    </CellData>
  </Piece>
  </UnstructuredGrid>
</VTKFile>
