<?xml version="1.0"?>
<VTKFile type="UnstructuredGrid">
  <UnstructuredGrid>
  <Piece NumberOfPoints="42"  NumberOfCells="81">
    <Points>
      <DataArray type="Float64" NumberOfComponents="3" format="ascii">
0 0 0
0.29996 -4.76004e-05 0
0.599921 -0.000176137 0
0.899885 -0.000381351 0
1.19985 -0.000658985 0
1.49982 -0.00100478 0
1.79979 -0.00141448 0
2.09976 -0.00188382 0
2.39973 -0.00240854 0
2.69971 -0.0029844 0
2.99969 -0.00360711 0
3.29967 -0.00427244 0
3.59965 -0.00497611 0
3.89963 -0.00571388 0
4.19962 -0.00648147 0
4.49961 -0.00727464 0
4.7996 -0.00808911 0
5.09959 -0.00892064 0
5.39959 -0.00976496 0
5.69958 -0.0106178 0
5.99958 -0.0114736 0
0 0.3 0
0.300043 0.299954 0
0.600083 0.299825 0
0.900121 0.29962 0
1.20016 0.299342 0
1.50019 0.298996 0
1.80022 0.298587 0
2.10025 0.298117 0
2.40028 0.297592 0
2.7003 0.297016 0
3.00033 0.296394 0
3.30035 0.295728 0
3.60037 0.295024 0
3.90038 0.294287 0
4.2004 0.293519 0
4.50041 0.292726 0
4.80042 0.291911 0
5.10043 0.29108 0
5.40043 0.290235 0
5.70043 0.289382 0
6.00043 0.288525 0
      </DataArray>
    </Points>
    <Cells>
      <DataArray type="Int32" Name="connectivity" format="ascii">
0 1
1 2
2 3
3 4
4 5
5 6
6 7
7 8
8 9
9 10
10 11
11 12
12 13
13 14
14 15
15 16
16 17
17 18
18 19
19 20
21 22
22 23
23 24
24 25
25 26
26 27
27 28
28 29
29 30
30 31
31 32
32 33
33 34
34 35
35 36
36 37
37 38
38 39
39 40
40 41
0 21
0 22
1 22
1 23
2 23
2 24
3 24
3 25
4 25
4 26
5 26
5 27
6 27
6 28
7 28
7 29
8 29
8 30
9 30
9 31
10 31
10 32
11 32
11 33
12 33
12 34
13 34
13 35
14 35
14 36
15 36
15 37
16 37
16 38
17 38
17 39
18 39
18 40
19 40
19 41
20 41
      </DataArray>
      <DataArray type="Int32" Name="offsets" format="ascii">
2
4
6
8
10
12
14
16
18
20
22
24
26
28
30
32
34
36
38
40
42
44
46
48
50
52
54
56
58
60
62
64
66
68
70
72
74
76
78
80
82
84
86
88
90
92
94
96
98
100
102
104
106
108
110
112
114
116
118
120
122
124
126
128
130
132
134
136
138
140
142
144
146
148
150
152
154
156
158
160
162
      </DataArray>
      <DataArray type="UInt8" Name="types" format="ascii">
4
4
4
4
4
4
4
4
4
4
4
4
4
4
4
4
4
4
4
4
4
4
4
4
4
4
4
4
4
4
4
4
4
4
4
4
4
4
4
4
4
4
4
4
4
4
4
4
4
4
4
4
4
4
4
4
4
4
4
4
4
4
4
4
4
4
4
4
4
4
4
4
4
4
4
4
4
4
4
4
4
      </DataArray>
    </Cells>
    <PointData>
      <DataArray type="Float64" NumberOfComponents="3" Name="Displacement" format="ascii">
0 0 0
-4.04846e-05 -4.76004e-05 0
-7.88618e-05 -0.000176137 0
-0.000115151 -0.000381351 0
-0.000149367 -0.000658985 0
-0.000181523 -0.00100478 0
-0.000211628 -0.00141448 0
-0.00023969 -0.00188382 0
-0.000265714 -0.00240854 0
-0.0002897 -0.0029844 0
-0.000311649 -0.00360711 0
-0.000331559 -0.00427244 0
-0.000349427 -0.00497611 0
-0.000365245 -0.00571388 0
-0.000379008 -0.00648147 0
-0.000390708 -0.00727464 0
-0.000400334 -0.00808911 0
-0.000407876 -0.00892064 0
-0.000413325 -0.00976496 0
-0.000416667 -0.0106178 0
-0.000417888 -0.0114736 0
0 0 0
4.25904e-05 -4.6307e-05 0
8.30279e-05 -0.000174875 0
0.000121294 -0.000380138 0
0.000157372 -0.000657835 0
0.000191251 -0.0010037 0
0.000222921 -0.00141348 0
0.000252373 -0.00188291 0
0.000279605 -0.00240773 0
0.000304614 -0.00298367 0
0.0003274 -0.00360648 0
0.000347965 -0.0042719 0
0.000366313 -0.00497566 0
0.00038245 -0.0057135 0
0.000396382 -0.00648116 0
0.000408118 -0.00727439 0
0.000417668 -0.00808892 0
0.000425041 -0.00892048 0
0.000430248 -0.00976483 0
0.000433302 -0.0106177 0
0.000434214 -0.0114748 0
      </DataArray> 
    </PointData>
    <CellData>
    </CellData>
  </Piece>
  </UnstructuredGrid>
</VTKFile>
