<?xml version="1.0"?>
<VTKFile type="UnstructuredGrid">
  <UnstructuredGrid>
  <Piece NumberOfPoints="42"  NumberOfCells="81">
    <Points>
      <DataArray type="Float64" NumberOfComponents="3" format="ascii">
0 0 0
0.299991 -1.10658e-05 0
0.599982 -4.09414e-05 0
0.899973 -8.86369e-05 0
1.19997 -0.000153162 0
1.49996 -0.000233528 0
1.79995 -0.000328744 0
2.09994 -0.000437819 0
2.39994 -0.000559766 0
2.69993 -0.000693592 0
2.99993 -0.000838309 0
3.29992 -0.000992926 0
3.59992 -0.00115645 0
3.89992 -0.0013279 0
4.19991 -0.00150628 0
4.49991 -0.0016906 0
4.79991 -0.00187987 0
5.09991 -0.0020731 0
5.39991 -0.0022693 0
5.69991 -0.00246748 0
5.99991 -0.00266635 0
0 0.3 0
0.30001 0.299989 0
0.600019 0.299959 0
0.900028 0.299912 0
1.20004 0.299847 0
1.50004 0.299767 0
1.80005 0.299672 0
2.10006 0.299562 0
2.40007 0.299441 0
2.70007 0.299307 0
3.00008 0.299162 0
3.30008 0.299007 0
3.60009 0.298844 0
3.90009 0.298672 0
4.20009 0.298494 0
4.5001 0.29831 0
4.8001 0.29812 0
5.1001 0.297927 0
5.4001 0.297731 0
5.7001 0.297533 0
6.0001 0.297334 0
      </DataArray>
    </Points>
    <Cells>
      <DataArray type="Int32" Name="connectivity" format="ascii">
0 1
1 2
2 3
3 4
4 5
5 6
6 7
7 8
8 9
9 10
10 11
11 12
12 13
13 14
14 15
15 16
16 17
17 18
18 19
19 20
21 22
22 23
23 24
24 25
25 26
26 27
27 28
28 29
29 30
30 31
31 32
32 33
33 34
34 35
35 36
36 37
37 38
38 39
39 40
40 41
0 21
0 22
1 22
1 23
2 23
2 24
3 24
3 25
4 25
4 26
5 26
5 27
6 27
6 28
7 28
7 29
8 29
8 30
9 30
9 31
10 31
10 32
11 32
11 33
12 33
12 34
13 34
13 35
14 35
14 36
15 36
15 37
16 37
16 38
17 38
17 39
18 39
18 40
19 40
19 41
20 41
      </DataArray>
      <DataArray type="Int32" Name="offsets" format="ascii">
2
4
6
8
10
12
14
16
18
20
22
24
26
28
30
32
34
36
38
40
42
44
46
48
50
52
54
56
58
60
62
64
66
68
70
72
74
76
78
80
82
84
86
88
90
92
94
96
98
100
102
104
106
108
110
112
114
116
118
120
122
124
126
128
130
132
134
136
138
140
142
144
146
148
150
152
154
156
158
160
162
      </DataArray>
      <DataArray type="UInt8" Name="types" format="ascii">
4
4
4
4
4
4
4
4
4
4
4
4
4
4
4
4
4
4
4
4
4
4
4
4
4
4
4
4
4
4
4
4
4
4
4
4
4
4
4
4
4
4
4
4
4
4
4
4
4
4
4
4
4
4
4
4
4
4
4
4
4
4
4
4
4
4
4
4
4
4
4
4
4
4
4
4
4
4
4
4
4
      </DataArray>
    </Cells>
    <PointData>
      <DataArray type="Float64" NumberOfComponents="3" Name="Displacement" format="ascii">
0 0 0
-9.40579e-06 -1.10658e-05 0
-1.83178e-05 -4.09414e-05 0
-2.67371e-05 -8.86369e-05 0
-3.46644e-05 -0.000153162 0
-4.21006e-05 -0.000233528 0
-4.9046e-05 -0.000328744 0
-5.55011e-05 -0.000437819 0
-6.14661e-05 -0.000559766 0
-6.69411e-05 -0.000693592 0
-7.19262e-05 -0.000838309 0
-7.64212e-05 -0.000992926 0
-8.04259e-05 -0.00115645 0
-8.39399e-05 -0.0013279 0
-8.6963e-05 -0.00150628 0
-8.94947e-05 -0.0016906 0
-9.15344e-05 -0.00187987 0
-9.30817e-05 -0.0020731 0
-9.41358e-05 -0.0022693 0
-9.46963e-05 -0.00246748 0
-9.47622e-05 -0.00266635 0
0 0 0
9.89949e-06 -1.0762e-05 0
1.93027e-05 -4.06393e-05 0
2.82087e-05 -8.83374e-05 0
3.66166e-05 -0.000152866 0
4.45258e-05 -0.000233236 0
5.19356e-05 -0.000328456 0
5.88458e-05 -0.000437537 0
6.52561e-05 -0.000559488 0
7.11663e-05 -0.000693319 0
7.65765e-05 -0.000838041 0
8.14868e-05 -0.000992663 0
8.58975e-05 -0.0011562 0
8.98087e-05 -0.00132765 0
9.32209e-05 -0.00150603 0
9.61345e-05 -0.00169035 0
9.85501e-05 -0.00187963 0
0.000100468 -0.00207286 0
0.000101889 -0.00226906 0
0.000102814 -0.00246724 0
0.000103243 -0.00266642 0
      </DataArray> 
    </PointData>
    <CellData>
    </CellData>
  </Piece>
  </UnstructuredGrid>
</VTKFile>
