<?xml version="1.0"?>
<VTKFile type="UnstructuredGrid">
  <UnstructuredGrid>
  <Piece NumberOfPoints="42"  NumberOfCells="81">
    <Points>
      <DataArray type="Float64" NumberOfComponents="3" format="ascii">
0 0 0
0.299994 -7.5451e-06 0
0.599988 -2.79151e-05 0
0.899982 -6.04351e-05 0
1.19998 -0.00010443 0
1.49997 -0.000159225 0
1.79997 -0.000224145 0
2.09996 -0.000298515 0
2.39996 -0.00038166 0
2.69995 -0.000472906 0
2.99995 -0.000571576 0
3.29995 -0.000676997 0
3.59995 -0.000788493 0
3.89994 -0.00090539 0
4.19994 -0.00102701 0
4.49994 -0.00115268 0
4.79994 -0.00128173 0
5.09994 -0.00141348 0
5.39994 -0.00154725 0
5.69994 -0.00168237 0
5.99994 -0.00181796 0
0 0.3 0
0.300007 0.299993 0
0.600013 0.299972 0
0.900019 0.29994 0
1.20002 0.299896 0
1.50003 0.299841 0
1.80004 0.299776 0
2.10004 0.299702 0
2.40004 0.299619 0
2.70005 0.299527 0
3.00005 0.299429 0
3.30006 0.299323 0
3.60006 0.299212 0
3.90006 0.299095 0
4.20006 0.298973 0
4.50007 0.298847 0
4.80007 0.298718 0
5.10007 0.298587 0
5.40007 0.298453 0
5.70007 0.298318 0
6.00007 0.298182 0
      </DataArray>
    </Points>
    <Cells>
      <DataArray type="Int32" Name="connectivity" format="ascii">
0 1
1 2
2 3
3 4
4 5
5 6
6 7
7 8
8 9
9 10
10 11
11 12
12 13
13 14
14 15
15 16
16 17
17 18
18 19
19 20
21 22
22 23
23 24
24 25
25 26
26 27
27 28
28 29
29 30
30 31
31 32
32 33
33 34
34 35
35 36
36 37
37 38
38 39
39 40
40 41
0 21
0 22
1 22
1 23
2 23
2 24
3 24
3 25
4 25
4 26
5 26
5 27
6 27
6 28
7 28
7 29
8 29
8 30
9 30
9 31
10 31
10 32
11 32
11 33
12 33
12 34
13 34
13 35
14 35
14 36
15 36
15 37
16 37
16 38
17 38
17 39
18 39
18 40
19 40
19 41
20 41
      </DataArray>
      <DataArray type="Int32" Name="offsets" format="ascii">
2
4
6
8
10
12
14
16
18
20
22
24
26
28
30
32
34
36
38
40
42
44
46
48
50
52
54
56
58
60
62
64
66
68
70
72
74
76
78
80
82
84
86
88
90
92
94
96
98
100
102
104
106
108
110
112
114
116
118
120
122
124
126
128
130
132
134
136
138
140
142
144
146
148
150
152
154
156
158
160
162
      </DataArray>
      <DataArray type="UInt8" Name="types" format="ascii">
4
4
4
4
4
4
4
4
4
4
4
4
4
4
4
4
4
4
4
4
4
4
4
4
4
4
4
4
4
4
4
4
4
4
4
4
4
4
4
4
4
4
4
4
4
4
4
4
4
4
4
4
4
4
4
4
4
4
4
4
4
4
4
4
4
4
4
4
4
4
4
4
4
4
4
4
4
4
4
4
4
      </DataArray>
    </Cells>
    <PointData>
      <DataArray type="Float64" NumberOfComponents="3" Name="Displacement" format="ascii">
0 0 0
-6.41287e-06 -7.5451e-06 0
-1.24888e-05 -2.79151e-05 0
-1.82283e-05 -6.04351e-05 0
-2.36317e-05 -0.00010443 0
-2.86994e-05 -0.000159225 0
-3.34316e-05 -0.000224145 0
-3.78284e-05 -0.000298515 0
-4.189e-05 -0.00038166 0
-4.56165e-05 -0.000472906 0
-4.90078e-05 -0.000571576 0
-5.20639e-05 -0.000676997 0
-5.47846e-05 -0.000788493 0
-5.717e-05 -0.00090539 0
-5.92196e-05 -0.00102701 0
-6.09335e-05 -0.00115268 0
-6.23112e-05 -0.00128173 0
-6.33527e-05 -0.00141348 0
-6.40575e-05 -0.00154725 0
-6.44254e-05 -0.00168237 0
-6.44561e-05 -0.00181796 0
0 0 0
6.74976e-06 -7.33774e-06 0
1.31614e-05 -2.77085e-05 0
1.92346e-05 -6.02297e-05 0
2.49688e-05 -0.000104226 0
3.03637e-05 -0.000159023 0
3.54192e-05 -0.000223945 0
4.0135e-05 -0.000298318 0
4.4511e-05 -0.000381465 0
4.85472e-05 -0.000472713 0
5.22435e-05 -0.000571386 0
5.56e-05 -0.000676809 0
5.86169e-05 -0.000788307 0
6.12942e-05 -0.000905205 0
6.36322e-05 -0.00102683 0
6.5631e-05 -0.0011525 0
6.72909e-05 -0.00128155 0
6.86121e-05 -0.0014133 0
6.95949e-05 -0.00154707 0
7.02396e-05 -0.0016822 0
7.05465e-05 -0.00181799 0
      </DataArray> 
    </PointData>
    <CellData>
    </CellData>
  </Piece>
  </UnstructuredGrid>
</VTKFile>
