<?xml version="1.0"?>
<VTKFile type="UnstructuredGrid">
  <UnstructuredGrid>
  <Piece NumberOfPoints="42"  NumberOfCells="81">
    <Points>
      <DataArray type="Float64" NumberOfComponents="3" format="ascii">
0 0 0
0.299974 -3.03417e-05 0
0.59995 -0.000112267 0
0.899927 -0.000243061 0
1.1999 -0.00042001 0
1.49988 -0.0006404 0
1.79987 -0.000901516 0
2.09985 -0.00120064 0
2.39983 -0.00153507 0
2.69982 -0.00190207 0
2.9998 -0.00229895 0
3.29979 -0.00272297 0
3.59978 -0.00317144 0
3.89977 -0.00364163 0
4.19976 -0.00413083 0
4.49975 -0.00463632 0
4.79975 -0.0051554 0
5.09974 -0.00568533 0
5.39974 -0.00622342 0
5.69974 -0.00676694 0
5.99974 -0.00731235 0
0 0.3 0
0.300027 0.29997 0
0.600053 0.299889 0
0.900077 0.299758 0
1.2001 0.299581 0
1.50012 0.29936 0
1.80014 0.299099 0
2.10016 0.2988 0
2.40018 0.298466 0
2.70019 0.298099 0
3.00021 0.297702 0
3.30022 0.297278 0
3.60023 0.296829 0
3.90024 0.296359 0
4.20025 0.29587 0
4.50026 0.295364 0
4.80027 0.294845 0
5.10027 0.294315 0
5.40028 0.293777 0
5.70028 0.293233 0
6.00028 0.292687 0
      </DataArray>
    </Points>
    <Cells>
      <DataArray type="Int32" Name="connectivity" format="ascii">
0 1
1 2
2 3
3 4
4 5
5 6
6 7
7 8
8 9
9 10
10 11
11 12
12 13
13 14
14 15
15 16
16 17
17 18
18 19
19 20
21 22
22 23
23 24
24 25
25 26
26 27
27 28
28 29
29 30
30 31
31 32
32 33
33 34
34 35
35 36
36 37
37 38
38 39
39 40
40 41
0 21
0 22
1 22
1 23
2 23
2 24
3 24
3 25
4 25
4 26
5 26
5 27
6 27
6 28
7 28
7 29
8 29
8 30
9 30
9 31
10 31
10 32
11 32
11 33
12 33
12 34
13 34
13 35
14 35
14 36
15 36
15 37
16 37
16 38
17 38
17 39
18 39
18 40
19 40
19 41
20 41
      </DataArray>
      <DataArray type="Int32" Name="offsets" format="ascii">
2
4
6
8
10
12
14
16
18
20
22
24
26
28
30
32
34
36
38
40
42
44
46
48
50
52
54
56
58
60
62
64
66
68
70
72
74
76
78
80
82
84
86
88
90
92
94
96
98
100
102
104
106
108
110
112
114
116
118
120
122
124
126
128
130
132
134
136
138
140
142
144
146
148
150
152
154
156
158
160
162
      </DataArray>
      <DataArray type="UInt8" Name="types" format="ascii">
4
4
4
4
4
4
4
4
4
4
4
4
4
4
4
4
4
4
4
4
4
4
4
4
4
4
4
4
4
4
4
4
4
4
4
4
4
4
4
4
4
4
4
4
4
4
4
4
4
4
4
4
4
4
4
4
4
4
4
4
4
4
4
4
4
4
4
4
4
4
4
4
4
4
4
4
4
4
4
4
4
      </DataArray>
    </Cells>
    <PointData>
      <DataArray type="Float64" NumberOfComponents="3" Name="Displacement" format="ascii">
0 0 0
-2.57984e-05 -3.03417e-05 0
-5.02486e-05 -0.000112267 0
-7.33581e-05 -0.000243061 0
-9.51334e-05 -0.00042001 0
-0.00011558 -0.0006404 0
-0.000134701 -0.000901516 0
-0.000152499 -0.00120064 0
-0.000168977 -0.00153507 0
-0.000184136 -0.00190207 0
-0.000197975 -0.00229895 0
-0.000210493 -0.00272297 0
-0.000221689 -0.00317144 0
-0.00023156 -0.00364163 0
-0.000240105 -0.00413083 0
-0.000247318 -0.00463632 0
-0.000253198 -0.0051554 0
-0.000257738 -0.00568533 0
-0.000260936 -0.00622342 0
-0.000262786 -0.00676694 0
-0.000263281 -0.00731235 0
0 0 0
2.71461e-05 -2.95132e-05 0
5.29254e-05 -0.000111451 0
7.73303e-05 -0.000242265 0
0.000100355 -0.00041924 0
0.000121993 -0.00063966 0
0.000142241 -0.000900809 0
0.000161097 -0.00119997 0
0.000178559 -0.00153443 0
0.000194625 -0.00190148 0
0.000209296 -0.00229839 0
0.000222572 -0.00272245 0
0.000234456 -0.00317095 0
0.000244949 -0.00364117 0
0.000254054 -0.0041304 0
0.000261776 -0.00463592 0
0.000268116 -0.00515501 0
0.00027308 -0.00568497 0
0.000276673 -0.00622307 0
0.000278898 -0.00676659 0
0.00027976 -0.00731284 0
      </DataArray> 
    </PointData>
    <CellData>
    </CellData>
  </Piece>
  </UnstructuredGrid>
</VTKFile>
