<?xml version="1.0"?>
<VTKFile type="UnstructuredGrid">
  <UnstructuredGrid>
  <Piece NumberOfPoints="42"  NumberOfCells="81">
    <Points>
      <DataArray type="Float64" NumberOfComponents="3" format="ascii">
0 0 0
0.299967 -3.8888e-05 0
0.599936 -0.000143893 0
0.899906 -0.000311537 0
1.19988 -0.000538341 0
1.49985 -0.000820825 0
1.79983 -0.00115551 0
2.0998 -0.00153892 0
2.39978 -0.00196757 0
2.69976 -0.00243799 0
2.99975 -0.00294669 0
3.29973 -0.00349019 0
3.59972 -0.00406502 0
3.8997 -0.0046677 0
4.19969 -0.00529474 0
4.49968 -0.00594268 0
4.79967 -0.00660801 0
5.09967 -0.00728728 0
5.39966 -0.00797699 0
5.69966 -0.00867368 0
5.99966 -0.00937277 0
0 0.3 0
0.300035 0.299962 0
0.600068 0.299857 0
0.900099 0.299689 0
1.20013 0.299463 0
1.50016 0.29918 0
1.80018 0.298845 0
2.10021 0.298462 0
2.40023 0.298033 0
2.70025 0.297563 0
3.00027 0.297054 0
3.30028 0.29651 0
3.6003 0.295935 0
3.90031 0.295333 0
4.20032 0.294706 0
4.50033 0.294058 0
4.80034 0.293392 0
5.10035 0.292713 0
5.40035 0.292023 0
5.70036 0.291327 0
6.00036 0.290626 0
      </DataArray>
    </Points>
    <Cells>
      <DataArray type="Int32" Name="connectivity" format="ascii">
0 1
1 2
2 3
3 4
4 5
5 6
6 7
7 8
8 9
9 10
10 11
11 12
12 13
13 14
14 15
15 16
16 17
17 18
18 19
19 20
21 22
22 23
23 24
24 25
25 26
26 27
27 28
28 29
29 30
30 31
31 32
32 33
33 34
34 35
35 36
36 37
37 38
38 39
39 40
40 41
0 21
0 22
1 22
1 23
2 23
2 24
3 24
3 25
4 25
4 26
5 26
5 27
6 27
6 28
7 28
7 29
8 29
8 30
9 30
9 31
10 31
10 32
11 32
11 33
12 33
12 34
13 34
13 35
14 35
14 36
15 36
15 37
16 37
16 38
17 38
17 39
18 39
18 40
19 40
19 41
20 41
      </DataArray>
      <DataArray type="Int32" Name="offsets" format="ascii">
2
4
6
8
10
12
14
16
18
20
22
24
26
28
30
32
34
36
38
40
42
44
46
48
50
52
54
56
58
60
62
64
66
68
70
72
74
76
78
80
82
84
86
88
90
92
94
96
98
100
102
104
106
108
110
112
114
116
118
120
122
124
126
128
130
132
134
136
138
140
142
144
146
148
150
152
154
156
158
160
162
      </DataArray>
      <DataArray type="UInt8" Name="types" format="ascii">
4
4
4
4
4
4
4
4
4
4
4
4
4
4
4
4
4
4
4
4
4
4
4
4
4
4
4
4
4
4
4
4
4
4
4
4
4
4
4
4
4
4
4
4
4
4
4
4
4
4
4
4
4
4
4
4
4
4
4
4
4
4
4
4
4
4
4
4
4
4
4
4
4
4
4
4
4
4
4
4
4
      </DataArray>
    </Cells>
    <PointData>
      <DataArray type="Float64" NumberOfComponents="3" Name="Displacement" format="ascii">
0 0 0
-3.30697e-05 -3.8888e-05 0
-6.44146e-05 -0.000143893 0
-9.40472e-05 -0.000311537 0
-0.000121978 -0.000538341 0
-0.000148216 -0.000820825 0
-0.000172766 -0.00115551 0
-0.000195634 -0.00153892 0
-0.000216824 -0.00196757 0
-0.000236335 -0.00243799 0
-0.000254168 -0.00294669 0
-0.000270322 -0.00349019 0
-0.000284794 -0.00406502 0
-0.00029758 -0.0046677 0
-0.000308676 -0.00529474 0
-0.000318077 -0.00594268 0
-0.000325775 -0.00660801 0
-0.000331764 -0.00728728 0
-0.000336037 -0.00797699 0
-0.000338586 -0.00867368 0
-0.0003394 -0.00937277 0
0 0 0
3.47936e-05 -3.78287e-05 0
6.78319e-05 -0.000142855 0
9.91025e-05 -0.000310532 0
0.000128595 -0.000537377 0
0.000156301 -0.000819911 0
0.000182213 -0.00115465 0
0.000206328 -0.00153812 0
0.000228643 -0.00196683 0
0.000249155 -0.00243731 0
0.000267865 -0.00294607 0
0.000284774 -0.00348964 0
0.000299886 -0.00406452 0
0.000313203 -0.00466725 0
0.000324731 -0.00529434 0
0.000334474 -0.00594231 0
0.00034244 -0.00660769 0
0.000348635 -0.00728698 0
0.000353066 -0.00797671 0
0.000355741 -0.00867341 0
0.000356668 -0.00937358 0
      </DataArray> 
    </PointData>
    <CellData>
    </CellData>
  </Piece>
  </UnstructuredGrid>
</VTKFile>
