<?xml version="1.0"?>
<VTKFile type="UnstructuredGrid">
  <UnstructuredGrid>
  <Piece NumberOfPoints="42"  NumberOfCells="81">
    <Points>
      <DataArray type="Float64" NumberOfComponents="3" format="ascii">
0 0 0
0.299964 -4.29093e-05 0
0.599929 -0.000158775 0
0.899896 -0.00034376 0
1.19987 -0.000594024 0
1.49984 -0.000905729 0
1.79981 -0.00127504 0
2.09978 -0.00169811 0
2.39976 -0.0021711 0
2.69974 -0.00269018 0
2.99972 -0.0032515 0
3.2997 -0.00385123 0
3.59969 -0.00448553 0
3.89967 -0.00515055 0
4.19966 -0.00584247 0
4.49965 -0.00655743 0
4.79964 -0.0072916 0
5.09963 -0.00804114 0
5.39963 -0.00880221 0
5.69963 -0.00957097 0
5.99962 -0.0103424 0
0 0.3 0
0.300038 0.299958 0
0.600075 0.299842 0
0.900109 0.299657 0
1.20014 0.299407 0
1.50017 0.299095 0
1.8002 0.298726 0
2.10023 0.298303 0
2.40025 0.29783 0
2.70027 0.297311 0
3.0003 0.296749 0
3.30031 0.296149 0
3.60033 0.295515 0
3.90035 0.29485 0
4.20036 0.294158 0
4.50037 0.293443 0
4.80038 0.292709 0
5.10038 0.291959 0
5.40039 0.291198 0
5.70039 0.290429 0
6.00039 0.289657 0
      </DataArray>
    </Points>
    <Cells>
      <DataArray type="Int32" Name="connectivity" format="ascii">
0 1
1 2
2 3
3 4
4 5
5 6
6 7
7 8
8 9
9 10
10 11
11 12
12 13
13 14
14 15
15 16
16 17
17 18
18 19
19 20
21 22
22 23
23 24
24 25
25 26
26 27
27 28
28 29
29 30
30 31
31 32
32 33
33 34
34 35
35 36
36 37
37 38
38 39
39 40
40 41
0 21
0 22
1 22
1 23
2 23
2 24
3 24
3 25
4 25
4 26
5 26
5 27
6 27
6 28
7 28
7 29
8 29
8 30
9 30
9 31
10 31
10 32
11 32
11 33
12 33
12 34
13 34
13 35
14 35
14 36
15 36
15 37
16 37
16 38
17 38
17 39
18 39
18 40
19 40
19 41
20 41
      </DataArray>
      <DataArray type="Int32" Name="offsets" format="ascii">
2
4
6
8
10
12
14
16
18
20
22
24
26
28
30
32
34
36
38
40
42
44
46
48
50
52
54
56
58
60
62
64
66
68
70
72
74
76
78
80
82
84
86
88
90
92
94
96
98
100
102
104
106
108
110
112
114
116
118
120
122
124
126
128
130
132
134
136
138
140
142
144
146
148
150
152
154
156
158
160
162
      </DataArray>
      <DataArray type="UInt8" Name="types" format="ascii">
4
4
4
4
4
4
4
4
4
4
4
4
4
4
4
4
4
4
4
4
4
4
4
4
4
4
4
4
4
4
4
4
4
4
4
4
4
4
4
4
4
4
4
4
4
4
4
4
4
4
4
4
4
4
4
4
4
4
4
4
4
4
4
4
4
4
4
4
4
4
4
4
4
4
4
4
4
4
4
4
4
      </DataArray>
    </Cells>
    <PointData>
      <DataArray type="Float64" NumberOfComponents="3" Name="Displacement" format="ascii">
0 0 0
-3.64918e-05 -4.29093e-05 0
-7.10821e-05 -0.000158775 0
-0.000103786 -0.00034376 0
-0.000134617 -0.000594024 0
-0.000163584 -0.000905729 0
-0.000190696 -0.00127504 0
-0.000215959 -0.00169811 0
-0.000239375 -0.0021711 0
-0.000260947 -0.00269018 0
-0.000280675 -0.0032515 0
-0.000298556 -0.00385123 0
-0.000314588 -0.00448553 0
-0.000328766 -0.00515055 0
-0.000341085 -0.00584247 0
-0.000351538 -0.00655743 0
-0.000360116 -0.0072916 0
-0.000366813 -0.00804114 0
-0.000371618 -0.00880221 0
-0.000374523 -0.00957097 0
-0.000375515 -0.0103424 0
0 0 0
3.83922e-05 -4.17418e-05 0
7.48458e-05 -0.000157633 0
0.000109346 -0.000342658 0
0.000141879 -0.000592973 0
0.000172435 -0.000904738 0
0.000201007 -0.00127411 0
0.000227589 -0.00169725 0
0.000252177 -0.00217032 0
0.000274769 -0.00268948 0
0.000295366 -0.00325087 0
0.000313968 -0.00385068 0
0.000330581 -0.00448504 0
0.000345207 -0.00515013 0
0.000357852 -0.0058421 0
0.000368524 -0.00655711 0
0.00037723 -0.00729132 0
0.000383978 -0.0080409 0
0.000388777 -0.00880199 0
0.000391637 -0.00957076 0
0.000392567 -0.0103434 0
      </DataArray> 
    </PointData>
    <CellData>
    </CellData>
  </Piece>
  </UnstructuredGrid>
</VTKFile>
