<?xml version="1.0"?>
<VTKFile type="UnstructuredGrid">
  <UnstructuredGrid>
  <Piece NumberOfPoints="42"  NumberOfCells="81">
    <Points>
      <DataArray type="Float64" NumberOfComponents="3" format="ascii">
0 0 0
0.299965 -4.17364e-05 0
0.599931 -0.000154435 0
0.899899 -0.000334362 0
1.19987 -0.000577783 0
1.49984 -0.000880965 0
1.79981 -0.00124017 0
2.09979 -0.00165168 0
2.39977 -0.00211174 0
2.69975 -0.00261662 0
2.99973 -0.0031626 0
3.29971 -0.00374593 0
3.59969 -0.00436288 0
3.89968 -0.00500972 0
4.19967 -0.00568271 0
4.49966 -0.00637813 0
4.79965 -0.00709222 0
5.09964 -0.00782126 0
5.39964 -0.00856152 0
5.69964 -0.00930926 0
5.99964 -0.0100596 0
0 0.3 0
0.300037 0.299959 0
0.600073 0.299847 0
0.900106 0.299667 0
1.20014 0.299423 0
1.50017 0.29912 0
1.8002 0.298761 0
2.10022 0.298349 0
2.40025 0.297889 0
2.70027 0.297384 0
3.00029 0.296838 0
3.30031 0.296255 0
3.60032 0.295638 0
3.90034 0.294991 0
4.20035 0.294318 0
4.50036 0.293622 0
4.80037 0.292908 0
5.10037 0.292179 0
5.40038 0.291439 0
5.70038 0.290691 0
6.00038 0.289939 0
      </DataArray>
    </Points>
    <Cells>
      <DataArray type="Int32" Name="connectivity" format="ascii">
0 1
1 2
2 3
3 4
4 5
5 6
6 7
7 8
8 9
9 10
10 11
11 12
12 13
13 14
14 15
15 16
16 17
17 18
18 19
19 20
21 22
22 23
23 24
24 25
25 26
26 27
27 28
28 29
29 30
30 31
31 32
32 33
33 34
34 35
35 36
36 37
37 38
38 39
39 40
40 41
0 21
0 22
1 22
1 23
2 23
2 24
3 24
3 25
4 25
4 26
5 26
5 27
6 27
6 28
7 28
7 29
8 29
8 30
9 30
9 31
10 31
10 32
11 32
11 33
12 33
12 34
13 34
13 35
14 35
14 36
15 36
15 37
16 37
16 38
17 38
17 39
18 39
18 40
19 40
19 41
20 41
      </DataArray>
      <DataArray type="Int32" Name="offsets" format="ascii">
2
4
6
8
10
12
14
16
18
20
22
24
26
28
30
32
34
36
38
40
42
44
46
48
50
52
54
56
58
60
62
64
66
68
70
72
74
76
78
80
82
84
86
88
90
92
94
96
98
100
102
104
106
108
110
112
114
116
118
120
122
124
126
128
130
132
134
136
138
140
142
144
146
148
150
152
154
156
158
160
162
      </DataArray>
      <DataArray type="UInt8" Name="types" format="ascii">
4
4
4
4
4
4
4
4
4
4
4
4
4
4
4
4
4
4
4
4
4
4
4
4
4
4
4
4
4
4
4
4
4
4
4
4
4
4
4
4
4
4
4
4
4
4
4
4
4
4
4
4
4
4
4
4
4
4
4
4
4
4
4
4
4
4
4
4
4
4
4
4
4
4
4
4
4
4
4
4
4
      </DataArray>
    </Cells>
    <PointData>
      <DataArray type="Float64" NumberOfComponents="3" Name="Displacement" format="ascii">
0 0 0
-3.54937e-05 -4.17364e-05 0
-6.91373e-05 -0.000154435 0
-0.000100945 -0.000334362 0
-0.00013093 -0.000577783 0
-0.000159101 -0.000880965 0
-0.000185465 -0.00124017 0
-0.000210029 -0.00165168 0
-0.000232795 -0.00211174 0
-0.000253765 -0.00261662 0
-0.000272939 -0.0031626 0
-0.000290316 -0.00374593 0
-0.000305892 -0.00436288 0
-0.000319663 -0.00500972 0
-0.000331623 -0.00568271 0
-0.000341767 -0.00637813 0
-0.000350088 -0.00709222 0
-0.000356576 -0.00782126 0
-0.000361225 -0.00856152 0
-0.000364024 -0.00930926 0
-0.000364962 -0.0100596 0
0 0 0
3.73427e-05 -4.06005e-05 0
7.28002e-05 -0.000153323 0
0.000106358 -0.000333287 0
0.000138005 -0.000576757 0
0.00016773 -0.000879997 0
0.000195527 -0.00123927 0
0.00022139 -0.00165084 0
0.000245315 -0.00211097 0
0.000267301 -0.00261593 0
0.000287349 -0.00316197 0
0.000305459 -0.00374537 0
0.000321634 -0.00436239 0
0.00033588 -0.00500929 0
0.000348201 -0.00568234 0
0.000358604 -0.00637779 0
0.000367095 -0.00709193 0
0.000373684 -0.007821 0
0.000378377 -0.00856128 0
0.000381185 -0.00930903 0
0.000382116 -0.0100605 0
      </DataArray> 
    </PointData>
    <CellData>
    </CellData>
  </Piece>
  </UnstructuredGrid>
</VTKFile>
