<?xml version="1.0"?>
<VTKFile type="UnstructuredGrid">
  <UnstructuredGrid>
  <Piece NumberOfPoints="42"  NumberOfCells="81">
    <Points>
      <DataArray type="Float64" NumberOfComponents="3" format="ascii">
0 0 0
0.299938 -7.2557e-05 0
0.59988 -0.00026851 0
0.899824 -0.000581367 0
1.19977 -0.00100464 0
1.49972 -0.00153183 0
1.79968 -0.00215646 0
2.09963 -0.00287202 0
2.39959 -0.00367202 0
2.69956 -0.00454998 0
2.99952 -0.00549941 0
3.29949 -0.00651379 0
3.59946 -0.00758666 0
3.89944 -0.0087115 0
4.19942 -0.00988184 0
4.4994 -0.0110912 0
4.79938 -0.012333 0
5.09937 -0.0136008 0
5.39936 -0.0148882 0
5.69936 -0.0161885 0
5.99935 -0.0174934 0
0 0.3 0
0.300065 0.299929 0
0.600127 0.299733 0
0.900185 0.29942 0
1.20024 0.298997 0
1.50029 0.29847 0
1.80034 0.297845 0
2.10038 0.297129 0
2.40043 0.296329 0
2.70046 0.295451 0
3.0005 0.294501 0
3.30053 0.293486 0
3.60056 0.292413 0
3.90058 0.291288 0
4.2006 0.290118 0
4.50062 0.288908 0
4.80063 0.287666 0
5.10064 0.286398 0
5.40065 0.285111 0
5.70065 0.283811 0
6.00065 0.282504 0
      </DataArray>
    </Points>
    <Cells>
      <DataArray type="Int32" Name="connectivity" format="ascii">
0 1
1 2
2 3
3 4
4 5
5 6
6 7
7 8
8 9
9 10
10 11
11 12
12 13
13 14
14 15
15 16
16 17
17 18
18 19
19 20
21 22
22 23
23 24
24 25
25 26
26 27
27 28
28 29
29 30
30 31
31 32
32 33
33 34
34 35
35 36
36 37
37 38
38 39
39 40
40 41
0 21
0 22
1 22
1 23
2 23
2 24
3 24
3 25
4 25
4 26
5 26
5 27
6 27
6 28
7 28
7 29
8 29
8 30
9 30
9 31
10 31
10 32
11 32
11 33
12 33
12 34
13 34
13 35
14 35
14 36
15 36
15 37
16 37
16 38
17 38
17 39
18 39
18 40
19 40
19 41
20 41
      </DataArray>
      <DataArray type="Int32" Name="offsets" format="ascii">
2
4
6
8
10
12
14
16
18
20
22
24
26
28
30
32
34
36
38
40
42
44
46
48
50
52
54
56
58
60
62
64
66
68
70
72
74
76
78
80
82
84
86
88
90
92
94
96
98
100
102
104
106
108
110
112
114
116
118
120
122
124
126
128
130
132
134
136
138
140
142
144
146
148
150
152
154
156
158
160
162
      </DataArray>
      <DataArray type="UInt8" Name="types" format="ascii">
4
4
4
4
4
4
4
4
4
4
4
4
4
4
4
4
4
4
4
4
4
4
4
4
4
4
4
4
4
4
4
4
4
4
4
4
4
4
4
4
4
4
4
4
4
4
4
4
4
4
4
4
4
4
4
4
4
4
4
4
4
4
4
4
4
4
4
4
4
4
4
4
4
4
4
4
4
4
4
4
4
      </DataArray>
    </Cells>
    <PointData>
      <DataArray type="Float64" NumberOfComponents="3" Name="Displacement" format="ascii">
0 0 0
-6.17363e-05 -7.2557e-05 0
-0.000120278 -0.00026851 0
-0.000175668 -0.000581367 0
-0.000227945 -0.00100464 0
-0.000277136 -0.00153183 0
-0.000323265 -0.00215646 0
-0.000366347 -0.00287202 0
-0.000406394 -0.00367202 0
-0.000443409 -0.00454998 0
-0.000477393 -0.00549941 0
-0.000508342 -0.00651379 0
-0.000536244 -0.00758666 0
-0.000561089 -0.0087115 0
-0.000582859 -0.00988184 0
-0.000601536 -0.0110912 0
-0.000617097 -0.012333 0
-0.000629519 -0.0136008 0
-0.000638777 -0.0148882 0
-0.000644843 -0.0161885 0
-0.000647681 -0.0174934 0
0 0 0
6.49277e-05 -7.05997e-05 0
0.000126554 -0.000266625 0
0.000184837 -0.000579597 0
0.000239739 -0.00100301 0
0.000291231 -0.00153038 0
0.000339291 -0.0021552 0
0.000383902 -0.00287096 0
0.000425055 -0.00367118 0
0.000462743 -0.00454936 0
0.000496968 -0.00549899 0
0.000527734 -0.00651359 0
0.000555051 -0.00758665 0
0.000578931 -0.00871167 0
0.000599391 -0.00988217 0
0.000616449 -0.0110916 0
0.000630128 -0.0123336 0
0.000640452 -0.0136015 0
0.000647445 -0.0148889 0
0.000651135 -0.0161893 0
0.00065155 -0.0174962 0
      </DataArray> 
    </PointData>
    <CellData>
    </CellData>
  </Piece>
  </UnstructuredGrid>
</VTKFile>
