<?xml version="1.0"?>
<VTKFile type="UnstructuredGrid">
  <UnstructuredGrid>
  <Piece NumberOfPoints="42"  NumberOfCells="81">
    <Points>
      <DataArray type="Float64" NumberOfComponents="3" format="ascii">
0 0 0
0.299976 -2.78278e-05 0
0.599954 -0.000102964 0
0.899933 -0.00022292 0
1.19991 -0.000385206 0
1.49989 -0.000587332 0
1.79988 -0.000826809 0
2.09986 -0.00110115 0
2.39985 -0.00140786 0
2.69983 -0.00174445 0
2.99982 -0.00210843 0
3.29981 -0.00249732 0
3.5998 -0.00290862 0
3.89979 -0.00333984 0
4.19978 -0.0037885 0
4.49977 -0.0042521 0
4.79977 -0.00472815 0
5.09976 -0.00521417 0
5.39976 -0.00570766 0
5.69976 -0.00620614 0
5.99976 -0.00670634 0
0 0.3 0
0.300025 0.299973 0
0.600049 0.299898 0
0.900071 0.299778 0
1.20009 0.299616 0
1.50011 0.299413 0
1.80013 0.299174 0
2.10015 0.298899 0
2.40016 0.298593 0
2.70018 0.298256 0
3.00019 0.297892 0
3.3002 0.297503 0
3.60022 0.297092 0
3.90022 0.296661 0
4.20023 0.296212 0
4.50024 0.295748 0
4.80025 0.295272 0
5.10025 0.294786 0
5.40025 0.294293 0
5.70026 0.293794 0
6.00026 0.293293 0
      </DataArray>
    </Points>
    <Cells>
      <DataArray type="Int32" Name="connectivity" format="ascii">
0 1
1 2
2 3
3 4
4 5
5 6
6 7
7 8
8 9
9 10
10 11
11 12
12 13
13 14
14 15
15 16
16 17
17 18
18 19
19 20
21 22
22 23
23 24
24 25
25 26
26 27
27 28
28 29
29 30
30 31
31 32
32 33
33 34
34 35
35 36
36 37
37 38
38 39
39 40
40 41
0 21
0 22
1 22
1 23
2 23
2 24
3 24
3 25
4 25
4 26
5 26
5 27
6 27
6 28
7 28
7 29
8 29
8 30
9 30
9 31
10 31
10 32
11 32
11 33
12 33
12 34
13 34
13 35
14 35
14 36
15 36
15 37
16 37
16 38
17 38
17 39
18 39
18 40
19 40
19 41
20 41
      </DataArray>
      <DataArray type="Int32" Name="offsets" format="ascii">
2
4
6
8
10
12
14
16
18
20
22
24
26
28
30
32
34
36
38
40
42
44
46
48
50
52
54
56
58
60
62
64
66
68
70
72
74
76
78
80
82
84
86
88
90
92
94
96
98
100
102
104
106
108
110
112
114
116
118
120
122
124
126
128
130
132
134
136
138
140
142
144
146
148
150
152
154
156
158
160
162
      </DataArray>
      <DataArray type="UInt8" Name="types" format="ascii">
4
4
4
4
4
4
4
4
4
4
4
4
4
4
4
4
4
4
4
4
4
4
4
4
4
4
4
4
4
4
4
4
4
4
4
4
4
4
4
4
4
4
4
4
4
4
4
4
4
4
4
4
4
4
4
4
4
4
4
4
4
4
4
4
4
4
4
4
4
4
4
4
4
4
4
4
4
4
4
4
4
      </DataArray>
    </Cells>
    <PointData>
      <DataArray type="Float64" NumberOfComponents="3" Name="Displacement" format="ascii">
0 0 0
-2.366e-05 -2.78278e-05 0
-4.60827e-05 -0.000102964 0
-6.72747e-05 -0.00022292 0
-8.72412e-05 -0.000385206 0
-0.000105987 -0.000587332 0
-0.000123514 -0.000826809 0
-0.000139826 -0.00110115 0
-0.000154925 -0.00140786 0
-0.00016881 -0.00174445 0
-0.000181481 -0.00210843 0
-0.000192939 -0.00249732 0
-0.000203182 -0.00290862 0
-0.000212207 -0.00333984 0
-0.000220013 -0.0037885 0
-0.000226597 -0.0042521 0
-0.000231955 -0.00472815 0
-0.000236083 -0.00521417 0
-0.000238979 -0.00570766 0
-0.000240638 -0.00620614 0
-0.000241055 -0.00670634 0
0 0 0
2.48967e-05 -2.70674e-05 0
4.85406e-05 -0.000102215 0
7.09253e-05 -0.000222187 0
9.20455e-05 -0.000384495 0
0.000111897 -0.000586646 0
0.000130476 -0.000826151 0
0.00014778 -0.00110052 0
0.000163809 -0.00140726 0
0.000178561 -0.00174388 0
0.000192036 -0.0021079 0
0.000204235 -0.00249682 0
0.000215159 -0.00290815 0
0.00022481 -0.00333939 0
0.000233191 -0.00378808 0
0.000240305 -0.0042517 0
0.000246154 -0.00472777 0
0.000250742 -0.0052138 0
0.000254073 -0.0057073 0
0.000256151 -0.00620578 0
0.00025698 -0.00670676 0
      </DataArray> 
    </PointData>
    <CellData>
    </CellData>
  </Piece>
  </UnstructuredGrid>
</VTKFile>
