<?xml version="1.0"?>
<VTKFile type="UnstructuredGrid">
  <UnstructuredGrid>
  <Piece NumberOfPoints="42"  NumberOfCells="81">
    <Points>
      <DataArray type="Float64" NumberOfComponents="3" format="ascii">
0 0 0
0.299979 -2.44758e-05 0
0.599959 -9.05607e-05 0
0.899941 -0.000196065 0
1.19992 -0.000338799 0
1.49991 -0.000516574 0
1.79989 -0.000727199 0
2.09988 -0.000968485 0
2.39986 -0.00123824 0
2.69985 -0.00153428 0
2.99984 -0.00185441 0
3.29983 -0.00219645 0
3.59982 -0.00255819 0
3.89981 -0.00293746 0
4.19981 -0.00333206 0
4.4998 -0.0037398 0
4.7998 -0.0041585 0
5.09979 -0.00458596 0
5.39979 -0.00501999 0
5.69979 -0.0054584 0
5.99979 -0.00589834 0
0 0.3 0
0.300022 0.299976 0
0.600043 0.29991 0
0.900062 0.299805 0
1.20008 0.299662 0
1.5001 0.299484 0
1.80011 0.299273 0
2.10013 0.299032 0
2.40014 0.298762 0
2.70016 0.298466 0
3.00017 0.298146 0
3.30018 0.297804 0
3.60019 0.297442 0
3.9002 0.297063 0
4.20021 0.296668 0
4.50021 0.296261 0
4.80022 0.295842 0
5.10022 0.295414 0
5.40022 0.29498 0
5.70023 0.294542 0
6.00023 0.294101 0
      </DataArray>
    </Points>
    <Cells>
      <DataArray type="Int32" Name="connectivity" format="ascii">
0 1
1 2
2 3
3 4
4 5
5 6
6 7
7 8
8 9
9 10
10 11
11 12
12 13
13 14
14 15
15 16
16 17
17 18
18 19
19 20
21 22
22 23
23 24
24 25
25 26
26 27
27 28
28 29
29 30
30 31
31 32
32 33
33 34
34 35
35 36
36 37
37 38
38 39
39 40
40 41
0 21
0 22
1 22
1 23
2 23
2 24
3 24
3 25
4 25
4 26
5 26
5 27
6 27
6 28
7 28
7 29
8 29
8 30
9 30
9 31
10 31
10 32
11 32
11 33
12 33
12 34
13 34
13 35
14 35
14 36
15 36
15 37
16 37
16 38
17 38
17 39
18 39
18 40
19 40
19 41
20 41
      </DataArray>
      <DataArray type="Int32" Name="offsets" format="ascii">
2
4
6
8
10
12
14
16
18
20
22
24
26
28
30
32
34
36
38
40
42
44
46
48
50
52
54
56
58
60
62
64
66
68
70
72
74
76
78
80
82
84
86
88
90
92
94
96
98
100
102
104
106
108
110
112
114
116
118
120
122
124
126
128
130
132
134
136
138
140
142
144
146
148
150
152
154
156
158
160
162
      </DataArray>
      <DataArray type="UInt8" Name="types" format="ascii">
4
4
4
4
4
4
4
4
4
4
4
4
4
4
4
4
4
4
4
4
4
4
4
4
4
4
4
4
4
4
4
4
4
4
4
4
4
4
4
4
4
4
4
4
4
4
4
4
4
4
4
4
4
4
4
4
4
4
4
4
4
4
4
4
4
4
4
4
4
4
4
4
4
4
4
4
4
4
4
4
4
      </DataArray>
    </Cells>
    <PointData>
      <DataArray type="Float64" NumberOfComponents="3" Name="Displacement" format="ascii">
0 0 0
-2.08089e-05 -2.44758e-05 0
-4.05287e-05 -9.05607e-05 0
-5.91646e-05 -0.000196065 0
-7.67205e-05 -0.000338799 0
-9.32e-05 -0.000516574 0
-0.000108605 -0.000727199 0
-0.000122939 -0.000968485 0
-0.000136201 -0.00123824 0
-0.000148393 -0.00153428 0
-0.000159515 -0.00185441 0
-0.000169566 -0.00219645 0
-0.000178544 -0.00255819 0
-0.000186449 -0.00293746 0
-0.000193279 -0.00333206 0
-0.000199031 -0.0037398 0
-0.000203704 -0.0041585 0
-0.000207293 -0.00458596 0
-0.000209797 -0.00501999 0
-0.000211213 -0.0054584 0
-0.000211535 -0.00589834 0
0 0 0
2.18975e-05 -2.38064e-05 0
4.26939e-05 -8.98996e-05 0
6.23843e-05 -0.000195417 0
8.09646e-05 -0.000338168 0
9.84315e-05 -0.000515962 0
0.000114782 -0.000726609 0
0.000130015 -0.000967918 0
0.000144129 -0.0012377 0
0.000157124 -0.00153376 0
0.000168998 -0.00185392 0
0.000179754 -0.00219597 0
0.000189392 -0.00255774 0
0.000197913 -0.00293703 0
0.00020532 -0.00333165 0
0.000211614 -0.00373941 0
0.000216798 -0.00415812 0
0.000220875 -0.00458559 0
0.000223848 -0.00501963 0
0.000225719 -0.00545805 0
0.000226492 -0.00589866 0
      </DataArray> 
    </PointData>
    <CellData>
    </CellData>
  </Piece>
  </UnstructuredGrid>
</VTKFile>
