<?xml version="1.0"?>
<VTKFile type="UnstructuredGrid">
  <UnstructuredGrid>
  <Piece NumberOfPoints="42"  NumberOfCells="81">
    <Points>
      <DataArray type="Float64" NumberOfComponents="3" format="ascii">
0 0 0
0.299951 -5.79864e-05 0
0.599904 -0.000214577 0
0.89986 -0.000464584 0
1.19982 -0.000802821 0
1.49978 -0.0012241 0
1.79974 -0.00172323 0
2.09971 -0.00229503 0
2.39968 -0.0029343 0
2.69965 -0.00363586 0
2.99962 -0.00439453 0
3.2996 -0.0052051 0
3.59957 -0.0060624 0
3.89955 -0.00696123 0
4.19954 -0.0078964 0
4.49952 -0.00886273 0
4.79951 -0.00985503 0
5.0995 -0.0108681 0
5.39949 -0.0118968 0
5.69949 -0.0129358 0
5.99949 -0.0139785 0
0 0.3 0
0.300052 0.299944 0
0.600101 0.299787 0
0.900148 0.299537 0
1.20019 0.299199 0
1.50023 0.298777 0
1.80027 0.298278 0
2.10031 0.297706 0
2.40034 0.297067 0
2.70037 0.296365 0
3.0004 0.295606 0
3.30042 0.294795 0
3.60045 0.293938 0
3.90046 0.293039 0
4.20048 0.292104 0
4.5005 0.291137 0
4.80051 0.290145 0
5.10052 0.289132 0
5.40052 0.288103 0
5.70052 0.287064 0
6.00053 0.28602 0
      </DataArray>
    </Points>
    <Cells>
      <DataArray type="Int32" Name="connectivity" format="ascii">
0 1
1 2
2 3
3 4
4 5
5 6
6 7
7 8
8 9
9 10
10 11
11 12
12 13
13 14
14 15
15 16
16 17
17 18
18 19
19 20
21 22
22 23
23 24
24 25
25 26
26 27
27 28
28 29
29 30
30 31
31 32
32 33
33 34
34 35
35 36
36 37
37 38
38 39
39 40
40 41
0 21
0 22
1 22
1 23
2 23
2 24
3 24
3 25
4 25
4 26
5 26
5 27
6 27
6 28
7 28
7 29
8 29
8 30
9 30
9 31
10 31
10 32
11 32
11 33
12 33
12 34
13 34
13 35
14 35
14 36
15 36
15 37
16 37
16 38
17 38
17 39
18 39
18 40
19 40
19 41
20 41
      </DataArray>
      <DataArray type="Int32" Name="offsets" format="ascii">
2
4
6
8
10
12
14
16
18
20
22
24
26
28
30
32
34
36
38
40
42
44
46
48
50
52
54
56
58
60
62
64
66
68
70
72
74
76
78
80
82
84
86
88
90
92
94
96
98
100
102
104
106
108
110
112
114
116
118
120
122
124
126
128
130
132
134
136
138
140
142
144
146
148
150
152
154
156
158
160
162
      </DataArray>
      <DataArray type="UInt8" Name="types" format="ascii">
4
4
4
4
4
4
4
4
4
4
4
4
4
4
4
4
4
4
4
4
4
4
4
4
4
4
4
4
4
4
4
4
4
4
4
4
4
4
4
4
4
4
4
4
4
4
4
4
4
4
4
4
4
4
4
4
4
4
4
4
4
4
4
4
4
4
4
4
4
4
4
4
4
4
4
4
4
4
4
4
4
      </DataArray>
    </Cells>
    <PointData>
      <DataArray type="Float64" NumberOfComponents="3" Name="Displacement" format="ascii">
0 0 0
-4.93266e-05 -5.79864e-05 0
-9.60918e-05 -0.000214577 0
-0.000140324 -0.000464584 0
-0.000182046 -0.000802821 0
-0.000221277 -0.0012241 0
-0.00025803 -0.00172323 0
-0.000292318 -0.00229503 0
-0.000324145 -0.0029343 0
-0.000353516 -0.00363586 0
-0.00038043 -0.00439453 0
-0.000404883 -0.0052051 0
-0.000426871 -0.0060624 0
-0.000446385 -0.00696123 0
-0.000463414 -0.0078964 0
-0.000477946 -0.00886273 0
-0.000489968 -0.00985503 0
-0.000499464 -0.0108681 0
-0.000506418 -0.0118968 0
-0.000510812 -0.0129358 0
-0.000512624 -0.0139785 0
0 0 0
5.18858e-05 -5.64156e-05 0
0.000101142 -0.000213053 0
0.000147742 -0.000463133 0
0.000191663 -0.000801463 0
0.000232884 -0.00122285 0
0.000271392 -0.00172211 0
0.000307177 -0.00229403 0
0.000340232 -0.00293344 0
0.000370554 -0.00363514 0
0.000398143 -0.00439394 0
0.000423002 -0.00520465 0
0.000445137 -0.00606207 0
0.000464556 -0.00696101 0
0.00048127 -0.00789629 0
0.00049529 -0.00886271 0
0.000506632 -0.00985509 0
0.000515309 -0.0108682 0
0.000521339 -0.0118969 0
0.000524738 -0.012936 0
0.000525525 -0.0139803 0
      </DataArray> 
    </PointData>
    <CellData>
    </CellData>
  </Piece>
  </UnstructuredGrid>
</VTKFile>
