<?xml version="1.0"?>
<VTKFile type="UnstructuredGrid">
  <UnstructuredGrid>
  <Piece NumberOfPoints="42"  NumberOfCells="81">
    <Points>
      <DataArray type="Float64" NumberOfComponents="3" format="ascii">
0 0 0
0.299962 -4.49198e-05 0
0.599926 -0.000166216 0
0.899891 -0.000359871 0
1.19986 -0.000621865 0
1.49983 -0.00094818 0
1.7998 -0.0013348 0
2.09977 -0.0017777 0
2.39975 -0.00227286 0
2.69973 -0.00281627 0
2.99971 -0.00340391 0
3.29969 -0.00403175 0
3.59967 -0.00469578 0
3.89966 -0.00539198 0
4.19964 -0.00611633 0
4.49963 -0.0068648 0
4.79962 -0.00763339 0
5.09962 -0.00841807 0
5.39961 -0.00921481 0
5.69961 -0.0100196 0
5.99961 -0.0108272 0
0 0.3 0
0.30004 0.299956 0
0.600078 0.299835 0
0.900114 0.299641 0
1.20015 0.299379 0
1.50018 0.299053 0
1.80021 0.298666 0
2.10024 0.298223 0
2.40026 0.297728 0
2.70029 0.297184 0
3.00031 0.296597 0
3.30033 0.295969 0
3.60035 0.295305 0
3.90036 0.294608 0
4.20037 0.293884 0
4.50039 0.293135 0
4.80039 0.292367 0
5.1004 0.291582 0
5.40041 0.290785 0
5.70041 0.289981 0
6.00041 0.289172 0
      </DataArray>
    </Points>
    <Cells>
      <DataArray type="Int32" Name="connectivity" format="ascii">
0 1
1 2
2 3
3 4
4 5
5 6
6 7
7 8
8 9
9 10
10 11
11 12
12 13
13 14
14 15
15 16
16 17
17 18
18 19
19 20
21 22
22 23
23 24
24 25
25 26
26 27
27 28
28 29
29 30
30 31
31 32
32 33
33 34
34 35
35 36
36 37
37 38
38 39
39 40
40 41
0 21
0 22
1 22
1 23
2 23
2 24
3 24
3 25
4 25
4 26
5 26
5 27
6 27
6 28
7 28
7 29
8 29
8 30
9 30
9 31
10 31
10 32
11 32
11 33
12 33
12 34
13 34
13 35
14 35
14 36
15 36
15 37
16 37
16 38
17 38
17 39
18 39
18 40
19 40
19 41
20 41
      </DataArray>
      <DataArray type="Int32" Name="offsets" format="ascii">
2
4
6
8
10
12
14
16
18
20
22
24
26
28
30
32
34
36
38
40
42
44
46
48
50
52
54
56
58
60
62
64
66
68
70
72
74
76
78
80
82
84
86
88
90
92
94
96
98
100
102
104
106
108
110
112
114
116
118
120
122
124
126
128
130
132
134
136
138
140
142
144
146
148
150
152
154
156
158
160
162
      </DataArray>
      <DataArray type="UInt8" Name="types" format="ascii">
4
4
4
4
4
4
4
4
4
4
4
4
4
4
4
4
4
4
4
4
4
4
4
4
4
4
4
4
4
4
4
4
4
4
4
4
4
4
4
4
4
4
4
4
4
4
4
4
4
4
4
4
4
4
4
4
4
4
4
4
4
4
4
4
4
4
4
4
4
4
4
4
4
4
4
4
4
4
4
4
4
      </DataArray>
    </Cells>
    <PointData>
      <DataArray type="Float64" NumberOfComponents="3" Name="Displacement" format="ascii">
0 0 0
-3.8203e-05 -4.49198e-05 0
-7.44161e-05 -0.000166216 0
-0.000108656 -0.000359871 0
-0.000140938 -0.000621865 0
-0.000171271 -0.00094818 0
-0.000199665 -0.0013348 0
-0.000226127 -0.0017777 0
-0.000250659 -0.00227286 0
-0.000273265 -0.00281627 0
-0.000293943 -0.00340391 0
-0.000312692 -0.00403175 0
-0.000329508 -0.00469578 0
-0.000344388 -0.00539198 0
-0.000357323 -0.00611633 0
-0.000368307 -0.0068648 0
-0.000377332 -0.00763339 0
-0.000384389 -0.00841807 0
-0.000389467 -0.00921481 0
-0.000392556 -0.0100196 0
-0.000393643 -0.0108272 0
0 0 0
4.01915e-05 -4.36983e-05 0
7.83525e-05 -0.000165023 0
0.000114467 -0.000358721 0
0.00014852 -0.000620771 0
0.0001805 -0.000947152 0
0.000210401 -0.00133384 0
0.000238214 -0.00177682 0
0.000263936 -0.00227207 0
0.000287565 -0.00281556 0
0.000309101 -0.00340328 0
0.000328547 -0.0040312 0
0.000345905 -0.0046953 0
0.00036118 -0.00539157 0
0.00037438 -0.00611598 0
0.00038551 -0.00686451 0
0.00039458 -0.00763315 0
0.000401599 -0.00841786 0
0.000406576 -0.00921463 0
0.000409522 -0.0100194 0
0.000410447 -0.0108283 0
      </DataArray> 
    </PointData>
    <CellData>
    </CellData>
  </Piece>
  </UnstructuredGrid>
</VTKFile>
