<?xml version="1.0"?>
<VTKFile type="UnstructuredGrid">
  <UnstructuredGrid>
  <Piece NumberOfPoints="42"  NumberOfCells="81">
    <Points>
      <DataArray type="Float64" NumberOfComponents="3" format="ascii">
0 0 0
0.299954 -5.44688e-05 0
0.59991 -0.000201557 0
0.899868 -0.000436393 0
1.19983 -0.000754104 0
1.49979 -0.00114982 0
1.79976 -0.00161865 0
2.09973 -0.00215575 0
2.3997 -0.00275622 0
2.69967 -0.00341521 0
2.99964 -0.00412782 0
3.29962 -0.0048892 0
3.5996 -0.00569446 0
3.89958 -0.00653874 0
4.19957 -0.00741715 0
4.49955 -0.00832483 0
4.79954 -0.0092569 0
5.09953 -0.0102085 0
5.39953 -0.0111747 0
5.69952 -0.0121507 0
5.99952 -0.0131301 0
0 0.3 0
0.300049 0.299947 0
0.600095 0.2998 0
0.900139 0.299565 0
1.20018 0.299247 0
1.50022 0.298851 0
1.80025 0.298382 0
2.10029 0.297845 0
2.40032 0.297245 0
2.70035 0.296586 0
3.00037 0.295873 0
3.3004 0.295111 0
3.60042 0.294306 0
3.90044 0.293462 0
4.20045 0.292583 0
4.50047 0.291675 0
4.80048 0.290743 0
5.10048 0.289792 0
5.40049 0.288825 0
5.70049 0.287849 0
6.00049 0.286868 0
      </DataArray>
    </Points>
    <Cells>
      <DataArray type="Int32" Name="connectivity" format="ascii">
0 1
1 2
2 3
3 4
4 5
5 6
6 7
7 8
8 9
9 10
10 11
11 12
12 13
13 14
14 15
15 16
16 17
17 18
18 19
19 20
21 22
22 23
23 24
24 25
25 26
26 27
27 28
28 29
29 30
30 31
31 32
32 33
33 34
34 35
35 36
36 37
37 38
38 39
39 40
40 41
0 21
0 22
1 22
1 23
2 23
2 24
3 24
3 25
4 25
4 26
5 26
5 27
6 27
6 28
7 28
7 29
8 29
8 30
9 30
9 31
10 31
10 32
11 32
11 33
12 33
12 34
13 34
13 35
14 35
14 36
15 36
15 37
16 37
16 38
17 38
17 39
18 39
18 40
19 40
19 41
20 41
      </DataArray>
      <DataArray type="Int32" Name="offsets" format="ascii">
2
4
6
8
10
12
14
16
18
20
22
24
26
28
30
32
34
36
38
40
42
44
46
48
50
52
54
56
58
60
62
64
66
68
70
72
74
76
78
80
82
84
86
88
90
92
94
96
98
100
102
104
106
108
110
112
114
116
118
120
122
124
126
128
130
132
134
136
138
140
142
144
146
148
150
152
154
156
158
160
162
      </DataArray>
      <DataArray type="UInt8" Name="types" format="ascii">
4
4
4
4
4
4
4
4
4
4
4
4
4
4
4
4
4
4
4
4
4
4
4
4
4
4
4
4
4
4
4
4
4
4
4
4
4
4
4
4
4
4
4
4
4
4
4
4
4
4
4
4
4
4
4
4
4
4
4
4
4
4
4
4
4
4
4
4
4
4
4
4
4
4
4
4
4
4
4
4
4
      </DataArray>
    </Cells>
    <PointData>
      <DataArray type="Float64" NumberOfComponents="3" Name="Displacement" format="ascii">
0 0 0
-4.63316e-05 -5.44688e-05 0
-9.02553e-05 -0.000201557 0
-0.000131796 -0.000436393 0
-0.000170974 -0.000754104 0
-0.000207806 -0.00114982 0
-0.000242305 -0.00161865 0
-0.00027448 -0.00215575 0
-0.000304337 -0.00275622 0
-0.000331878 -0.00341521 0
-0.000357103 -0.00412782 0
-0.00038001 -0.0048892 0
-0.000400593 -0.00569446 0
-0.000418846 -0.00653874 0
-0.000434758 -0.00741715 0
-0.00044832 -0.00832483 0
-0.000459518 -0.0092569 0
-0.00046834 -0.0102085 0
-0.000474771 -0.0111747 0
-0.000478796 -0.0121507 0
-0.000480395 -0.0131301 0
0 0 0
4.87375e-05 -5.29918e-05 0
9.50073e-05 -0.000200122 0
0.000138785 -0.000435021 0
0.000180051 -0.000752814 0
0.000218787 -0.00114862 0
0.000254982 -0.00161757 0
0.000288626 -0.00215478 0
0.000319714 -0.00275538 0
0.000348242 -0.00341448 0
0.000374211 -0.00412722 0
0.000397623 -0.00488871 0
0.000418484 -0.00569408 0
0.000436801 -0.00653846 0
0.000452584 -0.00741696 0
0.000465842 -0.00832472 0
0.000476588 -0.00925686 0
0.000484836 -0.0102085 0
0.0004906 -0.0111748 0
0.000493895 -0.0121508 0
0.000494737 -0.0131316 0
      </DataArray> 
    </PointData>
    <CellData>
    </CellData>
  </Piece>
  </UnstructuredGrid>
</VTKFile>
