<?xml version="1.0"?>
<VTKFile type="UnstructuredGrid">
  <UnstructuredGrid>
  <Piece NumberOfPoints="42"  NumberOfCells="81">
    <Points>
      <DataArray type="Float64" NumberOfComponents="3" format="ascii">
0 0 0
0.299979 -2.46435e-05 0
0.599959 -9.11809e-05 0
0.89994 -0.000197408 0
1.19992 -0.00034112 0
1.49991 -0.000520112 0
1.79989 -0.000732179 0
2.09988 -0.000975118 0
2.39986 -0.00124672 0
2.69985 -0.00154479 0
2.99984 -0.00186711 0
3.29983 -0.00221149 0
3.59982 -0.00257571 0
3.89981 -0.00295758 0
4.19981 -0.00335488 0
4.4998 -0.00376542 0
4.79979 -0.00418698 0
5.09979 -0.00461737 0
5.39979 -0.00505437 0
5.69979 -0.00549579 0
5.99979 -0.00593874 0
0 0.3 0
0.300022 0.299976 0
0.600043 0.299909 0
0.900063 0.299803 0
1.20008 0.29966 0
1.5001 0.299481 0
1.80012 0.299268 0
2.10013 0.299025 0
2.40015 0.298754 0
2.70016 0.298456 0
3.00017 0.298133 0
3.30018 0.297789 0
3.60019 0.297425 0
3.9002 0.297043 0
4.20021 0.296646 0
4.50021 0.296235 0
4.80022 0.295813 0
5.10022 0.295383 0
5.40023 0.294946 0
5.70023 0.294505 0
6.00023 0.294061 0
      </DataArray>
    </Points>
    <Cells>
      <DataArray type="Int32" Name="connectivity" format="ascii">
0 1
1 2
2 3
3 4
4 5
5 6
6 7
7 8
8 9
9 10
10 11
11 12
12 13
13 14
14 15
15 16
16 17
17 18
18 19
19 20
21 22
22 23
23 24
24 25
25 26
26 27
27 28
28 29
29 30
30 31
31 32
32 33
33 34
34 35
35 36
36 37
37 38
38 39
39 40
40 41
0 21
0 22
1 22
1 23
2 23
2 24
3 24
3 25
4 25
4 26
5 26
5 27
6 27
6 28
7 28
7 29
8 29
8 30
9 30
9 31
10 31
10 32
11 32
11 33
12 33
12 34
13 34
13 35
14 35
14 36
15 36
15 37
16 37
16 38
17 38
17 39
18 39
18 40
19 40
19 41
20 41
      </DataArray>
      <DataArray type="Int32" Name="offsets" format="ascii">
2
4
6
8
10
12
14
16
18
20
22
24
26
28
30
32
34
36
38
40
42
44
46
48
50
52
54
56
58
60
62
64
66
68
70
72
74
76
78
80
82
84
86
88
90
92
94
96
98
100
102
104
106
108
110
112
114
116
118
120
122
124
126
128
130
132
134
136
138
140
142
144
146
148
150
152
154
156
158
160
162
      </DataArray>
      <DataArray type="UInt8" Name="types" format="ascii">
4
4
4
4
4
4
4
4
4
4
4
4
4
4
4
4
4
4
4
4
4
4
4
4
4
4
4
4
4
4
4
4
4
4
4
4
4
4
4
4
4
4
4
4
4
4
4
4
4
4
4
4
4
4
4
4
4
4
4
4
4
4
4
4
4
4
4
4
4
4
4
4
4
4
4
4
4
4
4
4
4
      </DataArray>
    </Cells>
    <PointData>
      <DataArray type="Float64" NumberOfComponents="3" Name="Displacement" format="ascii">
0 0 0
-2.09514e-05 -2.46435e-05 0
-4.08064e-05 -9.11809e-05 0
-5.957e-05 -0.000197408 0
-7.72465e-05 -0.00034112 0
-9.38392e-05 -0.000520112 0
-0.000109351 -0.000732179 0
-0.000123783 -0.000975118 0
-0.000137137 -0.00124672 0
-0.000149414 -0.00154479 0
-0.000160613 -0.00186711 0
-0.000170733 -0.00221149 0
-0.000179775 -0.00257571 0
-0.000187736 -0.00295758 0
-0.000194614 -0.00335488 0
-0.000200408 -0.00376542 0
-0.000205114 -0.00418698 0
-0.00020873 -0.00461737 0
-0.000211254 -0.00505437 0
-0.000212681 -0.00549579 0
-0.000213008 -0.00593874 0
0 0 0
2.20474e-05 -2.39695e-05 0
4.29862e-05 -9.05153e-05 0
6.28114e-05 -0.000196755 0
8.15187e-05 -0.000340484 0
9.91049e-05 -0.000519496 0
0.000115567 -0.000731586 0
0.000130904 -0.000974548 0
0.000145114 -0.00124618 0
0.000158196 -0.00154427 0
0.000170151 -0.00186662 0
0.000180979 -0.00221102 0
0.000190681 -0.00257526 0
0.000199259 -0.00295715 0
0.000206715 -0.00335447 0
0.00021305 -0.00376502 0
0.000218268 -0.0041866 0
0.000222371 -0.004617 0
0.000225362 -0.00505401 0
0.000227243 -0.00549543 0
0.00022802 -0.00593906 0
      </DataArray> 
    </PointData>
    <CellData>
    </CellData>
  </Piece>
  </UnstructuredGrid>
</VTKFile>
