<?xml version="1.0"?>
<VTKFile type="UnstructuredGrid">
  <UnstructuredGrid>
  <Piece NumberOfPoints="42"  NumberOfCells="81">
    <Points>
      <DataArray type="Float64" NumberOfComponents="3" format="ascii">
0 0 0
0.299967 -3.87204e-05 0
0.599936 -0.000143273 0
0.899906 -0.000310195 0
1.19988 -0.000536021 0
1.49985 -0.000817288 0
1.79983 -0.00115053 0
2.09981 -0.00153229 0
2.39978 -0.00195909 0
2.69976 -0.00242748 0
2.99975 -0.00293399 0
3.29973 -0.00347515 0
3.59972 -0.0040475 0
3.8997 -0.00464758 0
4.19969 -0.00527192 0
4.49968 -0.00591706 0
4.79968 -0.00657953 0
5.09967 -0.00725587 0
5.39967 -0.00794261 0
5.69966 -0.00863629 0
5.99966 -0.00933237 0
0 0.3 0
0.300035 0.299962 0
0.600068 0.299858 0
0.900099 0.299691 0
1.20013 0.299465 0
1.50016 0.299184 0
1.80018 0.29885 0
2.10021 0.298469 0
2.40023 0.298042 0
2.70025 0.297573 0
3.00027 0.297067 0
3.30028 0.296525 0
3.6003 0.295953 0
3.90031 0.295353 0
4.20032 0.294728 0
4.50033 0.294083 0
4.80034 0.293421 0
5.10035 0.292744 0
5.40035 0.292058 0
5.70035 0.291364 0
6.00036 0.290667 0
      </DataArray>
    </Points>
    <Cells>
      <DataArray type="Int32" Name="connectivity" format="ascii">
0 1
1 2
2 3
3 4
4 5
5 6
6 7
7 8
8 9
9 10
10 11
11 12
12 13
13 14
14 15
15 16
16 17
17 18
18 19
19 20
21 22
22 23
23 24
24 25
25 26
26 27
27 28
28 29
29 30
30 31
31 32
32 33
33 34
34 35
35 36
36 37
37 38
38 39
39 40
40 41
0 21
0 22
1 22
1 23
2 23
2 24
3 24
3 25
4 25
4 26
5 26
5 27
6 27
6 28
7 28
7 29
8 29
8 30
9 30
9 31
10 31
10 32
11 32
11 33
12 33
12 34
13 34
13 35
14 35
14 36
15 36
15 37
16 37
16 38
17 38
17 39
18 39
18 40
19 40
19 41
20 41
      </DataArray>
      <DataArray type="Int32" Name="offsets" format="ascii">
2
4
6
8
10
12
14
16
18
20
22
24
26
28
30
32
34
36
38
40
42
44
46
48
50
52
54
56
58
60
62
64
66
68
70
72
74
76
78
80
82
84
86
88
90
92
94
96
98
100
102
104
106
108
110
112
114
116
118
120
122
124
126
128
130
132
134
136
138
140
142
144
146
148
150
152
154
156
158
160
162
      </DataArray>
      <DataArray type="UInt8" Name="types" format="ascii">
4
4
4
4
4
4
4
4
4
4
4
4
4
4
4
4
4
4
4
4
4
4
4
4
4
4
4
4
4
4
4
4
4
4
4
4
4
4
4
4
4
4
4
4
4
4
4
4
4
4
4
4
4
4
4
4
4
4
4
4
4
4
4
4
4
4
4
4
4
4
4
4
4
4
4
4
4
4
4
4
4
      </DataArray>
    </Cells>
    <PointData>
      <DataArray type="Float64" NumberOfComponents="3" Name="Displacement" format="ascii">
0 0 0
-3.29272e-05 -3.87204e-05 0
-6.41368e-05 -0.000143273 0
-9.36414e-05 -0.000310195 0
-0.000121452 -0.000536021 0
-0.000147575 -0.000817288 0
-0.000172019 -0.00115053 0
-0.000194788 -0.00153229 0
-0.000215884 -0.00195909 0
-0.00023531 -0.00242748 0
-0.000253065 -0.00293399 0
-0.000269147 -0.00347515 0
-0.000283554 -0.0040475 0
-0.000296283 -0.00464758 0
-0.000307328 -0.00527192 0
-0.000316685 -0.00591706 0
-0.000324346 -0.00657953 0
-0.000330306 -0.00725587 0
-0.000334558 -0.00794261 0
-0.000337092 -0.00863629 0
-0.0003379 -0.00933237 0
0 0 0
3.46437e-05 -3.76656e-05 0
6.75397e-05 -0.000142239 0
9.86757e-05 -0.000309193 0
0.000128041 -0.000535061 0
0.000155628 -0.000816377 0
0.00018143 -0.00114968 0
0.000205442 -0.00153149 0
0.000227661 -0.00195835 0
0.000248087 -0.0024268 0
0.000266718 -0.00293337 0
0.000283557 -0.00347459 0
0.000298606 -0.004047 0
0.000311868 -0.00464713 0
0.000323349 -0.00527152 0
0.000333053 -0.0059167 0
0.000340988 -0.0065792 0
0.000347159 -0.00725557 0
0.000351574 -0.00794233 0
0.000354241 -0.00863602 0
0.000355168 -0.00933317 0
      </DataArray> 
    </PointData>
    <CellData>
    </CellData>
  </Piece>
  </UnstructuredGrid>
</VTKFile>
