<?xml version="1.0"?>
<VTKFile type="UnstructuredGrid">
  <UnstructuredGrid>
  <Piece NumberOfPoints="42"  NumberOfCells="81">
    <Points>
      <DataArray type="Float64" NumberOfComponents="3" format="ascii">
0 0 0
0.29998 -2.3135e-05 0
0.599962 -8.55991e-05 0
0.899944 -0.000185323 0
1.19993 -0.000320236 0
1.49991 -0.00048827 0
1.7999 -0.000687354 0
2.09988 -0.00091542 0
2.39987 -0.0011704 0
2.69986 -0.00145021 0
2.99985 -0.0017528 0
3.29984 -0.00207609 0
3.59983 -0.00241802 0
3.89982 -0.0027765 0
4.19982 -0.00314948 0
4.49981 -0.00353488 0
4.79981 -0.00393064 0
5.0998 -0.00433467 0
5.3998 -0.00474492 0
5.6998 -0.00515931 0
5.9998 -0.00557514 0
0 0.3 0
0.300021 0.299977 0
0.60004 0.299915 0
0.900059 0.299815 0
1.20008 0.29968 0
1.50009 0.299512 0
1.80011 0.299313 0
2.10012 0.299085 0
2.40014 0.29883 0
2.70015 0.29855 0
3.00016 0.298248 0
3.30017 0.297924 0
3.60018 0.297582 0
3.90019 0.297224 0
4.20019 0.296851 0
4.5002 0.296466 0
4.80021 0.29607 0
5.10021 0.295666 0
5.40021 0.295255 0
5.70021 0.294841 0
6.00021 0.294425 0
      </DataArray>
    </Points>
    <Cells>
      <DataArray type="Int32" Name="connectivity" format="ascii">
0 1
1 2
2 3
3 4
4 5
5 6
6 7
7 8
8 9
9 10
10 11
11 12
12 13
13 14
14 15
15 16
16 17
17 18
18 19
19 20
21 22
22 23
23 24
24 25
25 26
26 27
27 28
28 29
29 30
30 31
31 32
32 33
33 34
34 35
35 36
36 37
37 38
38 39
39 40
40 41
0 21
0 22
1 22
1 23
2 23
2 24
3 24
3 25
4 25
4 26
5 26
5 27
6 27
6 28
7 28
7 29
8 29
8 30
9 30
9 31
10 31
10 32
11 32
11 33
12 33
12 34
13 34
13 35
14 35
14 36
15 36
15 37
16 37
16 38
17 38
17 39
18 39
18 40
19 40
19 41
20 41
      </DataArray>
      <DataArray type="Int32" Name="offsets" format="ascii">
2
4
6
8
10
12
14
16
18
20
22
24
26
28
30
32
34
36
38
40
42
44
46
48
50
52
54
56
58
60
62
64
66
68
70
72
74
76
78
80
82
84
86
88
90
92
94
96
98
100
102
104
106
108
110
112
114
116
118
120
122
124
126
128
130
132
134
136
138
140
142
144
146
148
150
152
154
156
158
160
162
      </DataArray>
      <DataArray type="UInt8" Name="types" format="ascii">
4
4
4
4
4
4
4
4
4
4
4
4
4
4
4
4
4
4
4
4
4
4
4
4
4
4
4
4
4
4
4
4
4
4
4
4
4
4
4
4
4
4
4
4
4
4
4
4
4
4
4
4
4
4
4
4
4
4
4
4
4
4
4
4
4
4
4
4
4
4
4
4
4
4
4
4
4
4
4
4
4
      </DataArray>
    </Cells>
    <PointData>
      <DataArray type="Float64" NumberOfComponents="3" Name="Displacement" format="ascii">
0 0 0
-1.96685e-05 -2.3135e-05 0
-3.83073e-05 -8.55991e-05 0
-5.59209e-05 -0.000185323 0
-7.2513e-05 -0.000320236 0
-8.80867e-05 -0.00048827 0
-0.000102644 -0.000687354 0
-0.000116187 -0.00091542 0
-0.000128716 -0.0011704 0
-0.000140233 -0.00145021 0
-0.000150736 -0.0017528 0
-0.000160226 -0.00207609 0
-0.000168701 -0.00241802 0
-0.000176161 -0.0027765 0
-0.000182603 -0.00314948 0
-0.000188025 -0.00353488 0
-0.000192427 -0.00393064 0
-0.000195804 -0.00433467 0
-0.000198154 -0.00474492 0
-0.000199476 -0.00515931 0
-0.000199764 -0.00557514 0
0 0 0
2.06978e-05 -2.2502e-05 0
4.03551e-05 -8.49735e-05 0
5.89676e-05 -0.000184709 0
7.65316e-05 -0.000319637 0
9.30441e-05 -0.000487688 0
0.000108503 -0.000686792 0
0.000122906 -0.000914878 0
0.000136253 -0.00116988 0
0.000148543 -0.00144972 0
0.000159776 -0.00175233 0
0.000169952 -0.00207564 0
0.000179073 -0.00241758 0
0.00018714 -0.00277609 0
0.000194154 -0.00314908 0
0.000200118 -0.0035345 0
0.000205033 -0.00393026 0
0.000208902 -0.00433431 0
0.000211728 -0.00474456 0
0.000213513 -0.00515896 0
0.000214261 -0.00557542 0
      </DataArray> 
    </PointData>
    <CellData>
    </CellData>
  </Piece>
  </UnstructuredGrid>
</VTKFile>
