<?xml version="1.0"?>
<VTKFile type="UnstructuredGrid">
  <UnstructuredGrid>
  <Piece NumberOfPoints="42"  NumberOfCells="81">
    <Points>
      <DataArray type="Float64" NumberOfComponents="3" format="ascii">
0 0 0
0.299996 -5.03018e-06 0
0.599992 -1.86103e-05 0
0.899988 -4.02904e-05 0
1.19998 -6.96206e-05 0
1.49998 -0.000106151 0
1.79998 -0.000149431 0
2.09997 -0.000199011 0
2.39997 -0.000254441 0
2.69997 -0.000315272 0
2.99997 -0.000381052 0
3.29997 -0.000451333 0
3.59996 -0.000525663 0
3.89996 -0.000603594 0
4.19996 -0.000684675 0
4.49996 -0.000768456 0
4.79996 -0.000854487 0
5.09996 -0.000942318 0
5.39996 -0.0010315 0
5.69996 -0.00112158 0
5.99996 -0.00121197 0
0 0.3 0
0.300004 0.299995 0
0.600009 0.299982 0
0.900013 0.29996 0
1.20002 0.299931 0
1.50002 0.299894 0
1.80002 0.299851 0
2.10003 0.299801 0
2.40003 0.299746 0
2.70003 0.299685 0
3.00003 0.299619 0
3.30004 0.299549 0
3.60004 0.299474 0
3.90004 0.299397 0
4.20004 0.299315 0
4.50004 0.299232 0
4.80004 0.299146 0
5.10005 0.299058 0
5.40005 0.298969 0
5.70005 0.298879 0
6.00005 0.298788 0
      </DataArray>
    </Points>
    <Cells>
      <DataArray type="Int32" Name="connectivity" format="ascii">
0 1
1 2
2 3
3 4
4 5
5 6
6 7
7 8
8 9
9 10
10 11
11 12
12 13
13 14
14 15
15 16
16 17
17 18
18 19
19 20
21 22
22 23
23 24
24 25
25 26
26 27
27 28
28 29
29 30
30 31
31 32
32 33
33 34
34 35
35 36
36 37
37 38
38 39
39 40
40 41
0 21
0 22
1 22
1 23
2 23
2 24
3 24
3 25
4 25
4 26
5 26
5 27
6 27
6 28
7 28
7 29
8 29
8 30
9 30
9 31
10 31
10 32
11 32
11 33
12 33
12 34
13 34
13 35
14 35
14 36
15 36
15 37
16 37
16 38
17 38
17 39
18 39
18 40
19 40
19 41
20 41
      </DataArray>
      <DataArray type="Int32" Name="offsets" format="ascii">
2
4
6
8
10
12
14
16
18
20
22
24
26
28
30
32
34
36
38
40
42
44
46
48
50
52
54
56
58
60
62
64
66
68
70
72
74
76
78
80
82
84
86
88
90
92
94
96
98
100
102
104
106
108
110
112
114
116
118
120
122
124
126
128
130
132
134
136
138
140
142
144
146
148
150
152
154
156
158
160
162
      </DataArray>
      <DataArray type="UInt8" Name="types" format="ascii">
4
4
4
4
4
4
4
4
4
4
4
4
4
4
4
4
4
4
4
4
4
4
4
4
4
4
4
4
4
4
4
4
4
4
4
4
4
4
4
4
4
4
4
4
4
4
4
4
4
4
4
4
4
4
4
4
4
4
4
4
4
4
4
4
4
4
4
4
4
4
4
4
4
4
4
4
4
4
4
4
4
      </DataArray>
    </Cells>
    <PointData>
      <DataArray type="Float64" NumberOfComponents="3" Name="Displacement" format="ascii">
0 0 0
-4.27516e-06 -5.03018e-06 0
-8.32558e-06 -1.86103e-05 0
-1.21515e-05 -4.02904e-05 0
-1.5753e-05 -6.96206e-05 0
-1.91303e-05 -0.000106151 0
-2.22835e-05 -0.000149431 0
-2.52126e-05 -0.000199011 0
-2.79178e-05 -0.000254441 0
-3.0399e-05 -0.000315272 0
-3.26562e-05 -0.000381052 0
-3.46895e-05 -0.000451333 0
-3.64987e-05 -0.000525663 0
-3.80839e-05 -0.000603594 0
-3.94448e-05 -0.000684675 0
-4.05815e-05 -0.000768456 0
-4.14939e-05 -0.000854487 0
-4.21817e-05 -0.000942318 0
-4.2645e-05 -0.0010315 0
-4.28835e-05 -0.00112158 0
-4.28971e-05 -0.00121197 0
0 0 0
4.49989e-06 -4.89184e-06 0
8.77453e-06 -1.84723e-05 0
1.28237e-05 -4.0153e-05 0
1.66472e-05 -6.94838e-05 0
2.0245e-05 -0.000106015 0
2.36169e-05 -0.000149296 0
2.67628e-05 -0.000198877 0
2.96827e-05 -0.000254308 0
3.23765e-05 -0.00031514 0
3.48443e-05 -0.000380921 0
3.70861e-05 -0.000451203 0
3.9102e-05 -0.000525534 0
4.08919e-05 -0.000603466 0
4.2456e-05 -0.000684547 0
4.37943e-05 -0.000768329 0
4.49071e-05 -0.000854361 0
4.57943e-05 -0.000942192 0
4.64561e-05 -0.00103137 0
4.68926e-05 -0.00112146 0
4.7104e-05 -0.00121199 0
      </DataArray> 
    </PointData>
    <CellData>
    </CellData>
  </Piece>
  </UnstructuredGrid>
</VTKFile>
