<?xml version="1.0"?>
<VTKFile type="UnstructuredGrid">
  <UnstructuredGrid>
  <Piece NumberOfPoints="42"  NumberOfCells="81">
    <Points>
      <DataArray type="Float64" NumberOfComponents="3" format="ascii">
0 0 0
0.299958 -4.92757e-05 0
0.599918 -0.000182337 0
0.899881 -0.000394776 0
1.19985 -0.000682185 0
1.49981 -0.00104016 0
1.79978 -0.00146428 0
2.09975 -0.00195014 0
2.39972 -0.00249334 0
2.6997 -0.00308947 0
2.99968 -0.00373412 0
3.29966 -0.00442287 0
3.59964 -0.00515132 0
3.89962 -0.00591506 0
4.19961 -0.00670969 0
4.4996 -0.00753078 0
4.79959 -0.00837394 0
5.09958 -0.00923475 0
5.39957 -0.0101088 0
5.69957 -0.0109917 0
5.99957 -0.0118776 0
0 0.3 0
0.300044 0.299952 0
0.600086 0.299819 0
0.900126 0.299606 0
1.20016 0.299319 0
1.5002 0.298961 0
1.80023 0.298537 0
2.10026 0.298051 0
2.40029 0.297507 0
2.70032 0.296911 0
3.00034 0.296267 0
3.30036 0.295578 0
3.60038 0.294849 0
3.9004 0.294085 0
4.20041 0.293291 0
4.50042 0.292469 0
4.80043 0.291626 0
5.10044 0.290765 0
5.40045 0.289891 0
5.70045 0.289008 0
6.00045 0.288121 0
      </DataArray>
    </Points>
    <Cells>
      <DataArray type="Int32" Name="connectivity" format="ascii">
0 1
1 2
2 3
3 4
4 5
5 6
6 7
7 8
8 9
9 10
10 11
11 12
12 13
13 14
14 15
15 16
16 17
17 18
18 19
19 20
21 22
22 23
23 24
24 25
25 26
26 27
27 28
28 29
29 30
30 31
31 32
32 33
33 34
34 35
35 36
36 37
37 38
38 39
39 40
40 41
0 21
0 22
1 22
1 23
2 23
2 24
3 24
3 25
4 25
4 26
5 26
5 27
6 27
6 28
7 28
7 29
8 29
8 30
9 30
9 31
10 31
10 32
11 32
11 33
12 33
12 34
13 34
13 35
14 35
14 36
15 36
15 37
16 37
16 38
17 38
17 39
18 39
18 40
19 40
19 41
20 41
      </DataArray>
      <DataArray type="Int32" Name="offsets" format="ascii">
2
4
6
8
10
12
14
16
18
20
22
24
26
28
30
32
34
36
38
40
42
44
46
48
50
52
54
56
58
60
62
64
66
68
70
72
74
76
78
80
82
84
86
88
90
92
94
96
98
100
102
104
106
108
110
112
114
116
118
120
122
124
126
128
130
132
134
136
138
140
142
144
146
148
150
152
154
156
158
160
162
      </DataArray>
      <DataArray type="UInt8" Name="types" format="ascii">
4
4
4
4
4
4
4
4
4
4
4
4
4
4
4
4
4
4
4
4
4
4
4
4
4
4
4
4
4
4
4
4
4
4
4
4
4
4
4
4
4
4
4
4
4
4
4
4
4
4
4
4
4
4
4
4
4
4
4
4
4
4
4
4
4
4
4
4
4
4
4
4
4
4
4
4
4
4
4
4
4
      </DataArray>
    </Cells>
    <PointData>
      <DataArray type="Float64" NumberOfComponents="3" Name="Displacement" format="ascii">
0 0 0
-4.19106e-05 -4.92757e-05 0
-8.16405e-05 -0.000182337 0
-0.00011921 -0.000394776 0
-0.000154636 -0.000682185 0
-0.000187932 -0.00104016 0
-0.000219108 -0.00146428 0
-0.000248171 -0.00195014 0
-0.000275128 -0.00249334 0
-0.000299979 -0.00308947 0
-0.000322725 -0.00373412 0
-0.000343363 -0.00442287 0
-0.000361889 -0.00515132 0
-0.000378298 -0.00591506 0
-0.000392582 -0.00670969 0
-0.000404731 -0.00753078 0
-0.000414737 -0.00837394 0
-0.000422587 -0.00923475 0
-0.00042827 -0.0101088 0
-0.000431774 -0.0109917 0
-0.000433083 -0.0118776 0
0 0 0
4.40897e-05 -4.79375e-05 0
8.59499e-05 -0.000181033 0
0.00012556 -0.000393524 0
0.000162905 -0.000681001 0
0.000197969 -0.00103905 0
0.000230743 -0.00146326 0
0.00026122 -0.00194922 0
0.000289394 -0.00249252 0
0.000315263 -0.00308875 0
0.000338828 -0.00373349 0
0.00036009 -0.00442234 0
0.000379054 -0.00515088 0
0.000395726 -0.00591471 0
0.000410114 -0.0067094 0
0.000422225 -0.00753056 0
0.000432071 -0.00837377 0
0.000439662 -0.00923463 0
0.000445009 -0.0101087 0
0.000448126 -0.0109916 0
0.000449026 -0.0118789 0
      </DataArray> 
    </PointData>
    <CellData>
    </CellData>
  </Piece>
  </UnstructuredGrid>
</VTKFile>
