<?xml version="1.0"?>
<VTKFile type="UnstructuredGrid">
  <UnstructuredGrid>
  <Piece NumberOfPoints="42"  NumberOfCells="81">
    <Points>
      <DataArray type="Float64" NumberOfComponents="3" format="ascii">
0 0 0
0.29996 -4.70978e-05 0
0.599922 -0.000174277 0
0.899886 -0.000377324 0
1.19985 -0.000652025 0
1.49982 -0.000994168 0
1.79979 -0.00139954 0
2.09976 -0.00186392 0
2.39974 -0.0023831 0
2.69971 -0.00295287 0
2.99969 -0.00356901 0
3.29967 -0.00422731 0
3.59965 -0.00492355 0
3.89964 -0.00565352 0
4.19963 -0.00641301 0
4.49961 -0.00719779 0
4.7996 -0.00800366 0
5.0996 -0.00882641 0
5.39959 -0.0096618 0
5.69959 -0.0105056 0
5.99959 -0.0113524 0
0 0.3 0
0.300042 0.299954 0
0.600082 0.299827 0
0.90012 0.299624 0
1.20016 0.299349 0
1.50019 0.299007 0
1.80022 0.298601 0
2.10025 0.298137 0
2.40028 0.297618 0
2.7003 0.297048 0
3.00032 0.296432 0
3.30034 0.295773 0
3.60036 0.295077 0
3.90038 0.294347 0
4.20039 0.293587 0
4.5004 0.292802 0
4.80041 0.291997 0
5.10042 0.291174 0
5.40043 0.290338 0
5.70043 0.289494 0
6.00043 0.288646 0
      </DataArray>
    </Points>
    <Cells>
      <DataArray type="Int32" Name="connectivity" format="ascii">
0 1
1 2
2 3
3 4
4 5
5 6
6 7
7 8
8 9
9 10
10 11
11 12
12 13
13 14
14 15
15 16
16 17
17 18
18 19
19 20
21 22
22 23
23 24
24 25
25 26
26 27
27 28
28 29
29 30
30 31
31 32
32 33
33 34
34 35
35 36
36 37
37 38
38 39
39 40
40 41
0 21
0 22
1 22
1 23
2 23
2 24
3 24
3 25
4 25
4 26
5 26
5 27
6 27
6 28
7 28
7 29
8 29
8 30
9 30
9 31
10 31
10 32
11 32
11 33
12 33
12 34
13 34
13 35
14 35
14 36
15 36
15 37
16 37
16 38
17 38
17 39
18 39
18 40
19 40
19 41
20 41
      </DataArray>
      <DataArray type="Int32" Name="offsets" format="ascii">
2
4
6
8
10
12
14
16
18
20
22
24
26
28
30
32
34
36
38
40
42
44
46
48
50
52
54
56
58
60
62
64
66
68
70
72
74
76
78
80
82
84
86
88
90
92
94
96
98
100
102
104
106
108
110
112
114
116
118
120
122
124
126
128
130
132
134
136
138
140
142
144
146
148
150
152
154
156
158
160
162
      </DataArray>
      <DataArray type="UInt8" Name="types" format="ascii">
4
4
4
4
4
4
4
4
4
4
4
4
4
4
4
4
4
4
4
4
4
4
4
4
4
4
4
4
4
4
4
4
4
4
4
4
4
4
4
4
4
4
4
4
4
4
4
4
4
4
4
4
4
4
4
4
4
4
4
4
4
4
4
4
4
4
4
4
4
4
4
4
4
4
4
4
4
4
4
4
4
      </DataArray>
    </Cells>
    <PointData>
      <DataArray type="Float64" NumberOfComponents="3" Name="Displacement" format="ascii">
0 0 0
-4.00568e-05 -4.70978e-05 0
-7.80282e-05 -0.000174277 0
-0.000113933 -0.000377324 0
-0.000147786 -0.000652025 0
-0.0001796 -0.000994168 0
-0.000209385 -0.00139954 0
-0.000237147 -0.00186392 0
-0.00026289 -0.0023831 0
-0.000286617 -0.00295287 0
-0.000308328 -0.00356901 0
-0.00032802 -0.00422731 0
-0.00034569 -0.00492355 0
-0.000361332 -0.00565352 0
-0.000374939 -0.00641301 0
-0.000386504 -0.00719779 0
-0.000396017 -0.00800366 0
-0.000403468 -0.00882641 0
-0.000408846 -0.0096618 0
-0.00041214 -0.0105056 0
-0.000413335 -0.0113524 0
0 0 0
4.21406e-05 -4.58179e-05 0
8.21513e-05 -0.000173028 0
0.000120014 -0.000376122 0
0.000155713 -0.000650886 0
0.000189236 -0.000993101 0
0.000220573 -0.00139855 0
0.000249719 -0.00186302 0
0.000276668 -0.00238229 0
0.000301418 -0.00295215 0
0.00032397 -0.00356838 0
0.000344326 -0.00422677 0
0.000362489 -0.00492309 0
0.000378464 -0.00565314 0
0.00039226 -0.00641269 0
0.000403883 -0.00719754 0
0.000413343 -0.00800346 0
0.00042065 -0.00882624 0
0.000425815 -0.00966167 0
0.000428849 -0.0105055 0
0.000429764 -0.0113536 0
      </DataArray> 
    </PointData>
    <CellData>
    </CellData>
  </Piece>
  </UnstructuredGrid>
</VTKFile>
