<?xml version="1.0"?>
<VTKFile type="UnstructuredGrid">
  <UnstructuredGrid>
  <Piece NumberOfPoints="42"  NumberOfCells="81">
    <Points>
      <DataArray type="Float64" NumberOfComponents="3" format="ascii">
0 0 0
0.299952 -5.66464e-05 0
0.599906 -0.000209617 0
0.899863 -0.000453845 0
1.19982 -0.000784262 0
1.49978 -0.0011958 0
1.79975 -0.00168339 0
2.09971 -0.00224197 0
2.39968 -0.00286646 0
2.69965 -0.0035518 0
2.99963 -0.00429293 0
3.2996 -0.00508476 0
3.59958 -0.00592223 0
3.89956 -0.00680028 0
4.19955 -0.00771383 0
4.49953 -0.00865782 0
4.79952 -0.00962717 0
5.09951 -0.0106168 0
5.39951 -0.0116217 0
5.6995 -0.0126367 0
5.9995 -0.0136553 0
0 0.3 0
0.300051 0.299945 0
0.600099 0.299792 0
0.900144 0.299548 0
1.20019 0.299217 0
1.50023 0.298805 0
1.80027 0.298318 0
2.1003 0.297759 0
2.40033 0.297134 0
2.70036 0.296449 0
3.00039 0.295708 0
3.30041 0.294916 0
3.60043 0.294078 0
3.90045 0.2932 0
4.20047 0.292286 0
4.50048 0.291342 0
4.8005 0.290373 0
5.1005 0.289383 0
5.40051 0.288378 0
5.70051 0.287363 0
6.00051 0.286343 0
      </DataArray>
    </Points>
    <Cells>
      <DataArray type="Int32" Name="connectivity" format="ascii">
0 1
1 2
2 3
3 4
4 5
5 6
6 7
7 8
8 9
9 10
10 11
11 12
12 13
13 14
14 15
15 16
16 17
17 18
18 19
19 20
21 22
22 23
23 24
24 25
25 26
26 27
27 28
28 29
29 30
30 31
31 32
32 33
33 34
34 35
35 36
36 37
37 38
38 39
39 40
40 41
0 21
0 22
1 22
1 23
2 23
2 24
3 24
3 25
4 25
4 26
5 26
5 27
6 27
6 28
7 28
7 29
8 29
8 30
9 30
9 31
10 31
10 32
11 32
11 33
12 33
12 34
13 34
13 35
14 35
14 36
15 36
15 37
16 37
16 38
17 38
17 39
18 39
18 40
19 40
19 41
20 41
      </DataArray>
      <DataArray type="Int32" Name="offsets" format="ascii">
2
4
6
8
10
12
14
16
18
20
22
24
26
28
30
32
34
36
38
40
42
44
46
48
50
52
54
56
58
60
62
64
66
68
70
72
74
76
78
80
82
84
86
88
90
92
94
96
98
100
102
104
106
108
110
112
114
116
118
120
122
124
126
128
130
132
134
136
138
140
142
144
146
148
150
152
154
156
158
160
162
      </DataArray>
      <DataArray type="UInt8" Name="types" format="ascii">
4
4
4
4
4
4
4
4
4
4
4
4
4
4
4
4
4
4
4
4
4
4
4
4
4
4
4
4
4
4
4
4
4
4
4
4
4
4
4
4
4
4
4
4
4
4
4
4
4
4
4
4
4
4
4
4
4
4
4
4
4
4
4
4
4
4
4
4
4
4
4
4
4
4
4
4
4
4
4
4
4
      </DataArray>
    </Cells>
    <PointData>
      <DataArray type="Float64" NumberOfComponents="3" Name="Displacement" format="ascii">
0 0 0
-4.81856e-05 -5.66464e-05 0
-9.38683e-05 -0.000209617 0
-0.000137075 -0.000453845 0
-0.000177828 -0.000784262 0
-0.000216144 -0.0011958 0
-0.000252039 -0.00168339 0
-0.000285521 -0.00224197 0
-0.000316597 -0.00286646 0
-0.00034527 -0.0035518 0
-0.00037154 -0.00429293 0
-0.000395403 -0.00508476 0
-0.000416855 -0.00592223 0
-0.000435887 -0.00680028 0
-0.000452489 -0.00771383 0
-0.000466651 -0.00865782 0
-0.000478357 -0.00962717 0
-0.000487595 -0.0106168 0
-0.000494348 -0.0116217 0
-0.0004986 -0.0126367 0
-0.000500329 -0.0136553 0
0 0 0
5.06864e-05 -5.51113e-05 0
9.88053e-05 -0.000208127 0
0.00014433 -0.000452424 0
0.000187239 -0.00078293 0
0.000227514 -0.00119457 0
0.000265142 -0.00168228 0
0.000300112 -0.00224098 0
0.000332417 -0.00286561 0
0.000362057 -0.00355108 0
0.000389029 -0.00429233 0
0.000413338 -0.00508429 0
0.000434989 -0.00592188 0
0.000453989 -0.00680004 0
0.00047035 -0.00771369 0
0.000484081 -0.00865776 0
0.000495197 -0.00962719 0
0.000503713 -0.0106169 0
0.000509643 -0.0116218 0
0.000513004 -0.0126369 0
0.000513813 -0.013657 0
      </DataArray> 
    </PointData>
    <CellData>
    </CellData>
  </Piece>
  </UnstructuredGrid>
</VTKFile>
