<?xml version="1.0"?>
<VTKFile type="UnstructuredGrid">
  <UnstructuredGrid>
  <Piece NumberOfPoints="42"  NumberOfCells="81">
    <Points>
      <DataArray type="Float64" NumberOfComponents="3" format="ascii">
0 0 0
0.29993 -8.21011e-05 0
0.599864 -0.00030384 0
0.899801 -0.000657873 0
1.19974 -0.00113685 0
1.49969 -0.00173344 0
1.79963 -0.00244028 0
2.09959 -0.00325003 0
2.39954 -0.00415534 0
2.6995 -0.00514887 0
2.99946 -0.00622327 0
3.29942 -0.00737119 0
3.59939 -0.00858529 0
3.89936 -0.00985821 0
4.19934 -0.0111826 0
4.49932 -0.0125512 0
4.7993 -0.0139565 0
5.09928 -0.0153912 0
5.39927 -0.0168481 0
5.69927 -0.0183196 0
5.99926 -0.0197963 0
0 0.3 0
0.300073 0.29992 0
0.600143 0.299698 0
0.900209 0.299344 0
1.20027 0.298865 0
1.50033 0.298268 0
1.80038 0.297561 0
2.10043 0.296751 0
2.40048 0.295845 0
2.70052 0.294852 0
3.00056 0.293777 0
3.3006 0.292629 0
3.60063 0.291414 0
3.90065 0.290141 0
4.20068 0.288817 0
4.5007 0.287448 0
4.80071 0.286042 0
5.10072 0.284608 0
5.40073 0.283151 0
5.70073 0.281679 0
6.00073 0.2802 0
      </DataArray>
    </Points>
    <Cells>
      <DataArray type="Int32" Name="connectivity" format="ascii">
0 1
1 2
2 3
3 4
4 5
5 6
6 7
7 8
8 9
9 10
10 11
11 12
12 13
13 14
14 15
15 16
16 17
17 18
18 19
19 20
21 22
22 23
23 24
24 25
25 26
26 27
27 28
28 29
29 30
30 31
31 32
32 33
33 34
34 35
35 36
36 37
37 38
38 39
39 40
40 41
0 21
0 22
1 22
1 23
2 23
2 24
3 24
3 25
4 25
4 26
5 26
5 27
6 27
6 28
7 28
7 29
8 29
8 30
9 30
9 31
10 31
10 32
11 32
11 33
12 33
12 34
13 34
13 35
14 35
14 36
15 36
15 37
16 37
16 38
17 38
17 39
18 39
18 40
19 40
19 41
20 41
      </DataArray>
      <DataArray type="Int32" Name="offsets" format="ascii">
2
4
6
8
10
12
14
16
18
20
22
24
26
28
30
32
34
36
38
40
42
44
46
48
50
52
54
56
58
60
62
64
66
68
70
72
74
76
78
80
82
84
86
88
90
92
94
96
98
100
102
104
106
108
110
112
114
116
118
120
122
124
126
128
130
132
134
136
138
140
142
144
146
148
150
152
154
156
158
160
162
      </DataArray>
      <DataArray type="UInt8" Name="types" format="ascii">
4
4
4
4
4
4
4
4
4
4
4
4
4
4
4
4
4
4
4
4
4
4
4
4
4
4
4
4
4
4
4
4
4
4
4
4
4
4
4
4
4
4
4
4
4
4
4
4
4
4
4
4
4
4
4
4
4
4
4
4
4
4
4
4
4
4
4
4
4
4
4
4
4
4
4
4
4
4
4
4
4
      </DataArray>
    </Cells>
    <PointData>
      <DataArray type="Float64" NumberOfComponents="3" Name="Displacement" format="ascii">
0 0 0
-6.98682e-05 -8.21011e-05 0
-0.000136129 -0.00030384 0
-0.000198838 -0.000657873 0
-0.000258043 -0.00113685 0
-0.000313781 -0.00173344 0
-0.000366081 -0.00244028 0
-0.000414964 -0.00325003 0
-0.000460443 -0.00415534 0
-0.000502523 -0.00514887 0
-0.000541206 -0.00622327 0
-0.000576484 -0.00737119 0
-0.000608347 -0.00858529 0
-0.000636777 -0.00985821 0
-0.000661753 -0.0111826 0
-0.000683252 -0.0125512 0
-0.000701245 -0.0139565 0
-0.000715702 -0.0153912 0
-0.000726589 -0.0168481 0
-0.000733874 -0.0183196 0
-0.000737508 -0.0197963 0
0 0 0
7.34713e-05 -7.98924e-05 0
0.000143199 -0.000301725 0
0.000209129 -0.000655903 0
0.000271212 -0.00113507 0
0.000329413 -0.00173188 0
0.000383702 -0.00243896 0
0.000434059 -0.00324897 0
0.00048047 -0.00415456 0
0.000522928 -0.00514837 0
0.000561435 -0.00622304 0
0.000595997 -0.00737122 0
0.000626625 -0.00858557 0
0.000653335 -0.00985873 0
0.00067615 -0.0111833 0
0.000695092 -0.0125521 0
0.00071019 -0.0139575 0
0.000721475 -0.0153924 0
0.00072898 -0.0168493 0
0.000732738 -0.0183209 0
0.000732785 -0.0197999 0
      </DataArray> 
    </PointData>
    <CellData>
    </CellData>
  </Piece>
  </UnstructuredGrid>
</VTKFile>
