<?xml version="1.0"?>
<VTKFile type="UnstructuredGrid">
  <UnstructuredGrid>
  <Piece NumberOfPoints="42"  NumberOfCells="81">
    <Points>
      <DataArray type="Float64" NumberOfComponents="3" format="ascii">
0 0 0
0.299942 -6.87054e-05 0
0.599886 -0.000254252 0
0.899834 -0.000550495 0
1.19978 -0.000951287 0
1.49974 -0.00145048 0
1.79969 -0.00204193 0
2.09965 -0.00271948 0
2.39962 -0.003477 0
2.69958 -0.00430832 0
2.99955 -0.00520732 0
3.29952 -0.00616782 0
3.59949 -0.0071837 0
3.89947 -0.00824879 0
4.19945 -0.00935695 0
4.49943 -0.010502 0
4.79942 -0.0116779 0
5.09941 -0.0128784 0
5.3994 -0.0140973 0
5.69939 -0.0153286 0
5.99939 -0.0165642 0
0 0.3 0
0.300061 0.299933 0
0.60012 0.299748 0
0.900175 0.299451 0
1.20023 0.29905 0
1.50028 0.298551 0
1.80032 0.297959 0
2.10036 0.297282 0
2.4004 0.296524 0
2.70044 0.295692 0
3.00047 0.294793 0
3.3005 0.293832 0
3.60053 0.292816 0
3.90055 0.291751 0
4.20057 0.290643 0
4.50058 0.289498 0
4.8006 0.288322 0
5.10061 0.287121 0
5.40061 0.285902 0
5.70062 0.284671 0
6.00062 0.283433 0
      </DataArray>
    </Points>
    <Cells>
      <DataArray type="Int32" Name="connectivity" format="ascii">
0 1
1 2
2 3
3 4
4 5
5 6
6 7
7 8
8 9
9 10
10 11
11 12
12 13
13 14
14 15
15 16
16 17
17 18
18 19
19 20
21 22
22 23
23 24
24 25
25 26
26 27
27 28
28 29
29 30
30 31
31 32
32 33
33 34
34 35
35 36
36 37
37 38
38 39
39 40
40 41
0 21
0 22
1 22
1 23
2 23
2 24
3 24
3 25
4 25
4 26
5 26
5 27
6 27
6 28
7 28
7 29
8 29
8 30
9 30
9 31
10 31
10 32
11 32
11 33
12 33
12 34
13 34
13 35
14 35
14 36
15 36
15 37
16 37
16 38
17 38
17 39
18 39
18 40
19 40
19 41
20 41
      </DataArray>
      <DataArray type="Int32" Name="offsets" format="ascii">
2
4
6
8
10
12
14
16
18
20
22
24
26
28
30
32
34
36
38
40
42
44
46
48
50
52
54
56
58
60
62
64
66
68
70
72
74
76
78
80
82
84
86
88
90
92
94
96
98
100
102
104
106
108
110
112
114
116
118
120
122
124
126
128
130
132
134
136
138
140
142
144
146
148
150
152
154
156
158
160
162
      </DataArray>
      <DataArray type="UInt8" Name="types" format="ascii">
4
4
4
4
4
4
4
4
4
4
4
4
4
4
4
4
4
4
4
4
4
4
4
4
4
4
4
4
4
4
4
4
4
4
4
4
4
4
4
4
4
4
4
4
4
4
4
4
4
4
4
4
4
4
4
4
4
4
4
4
4
4
4
4
4
4
4
4
4
4
4
4
4
4
4
4
4
4
4
4
4
      </DataArray>
    </Cells>
    <PointData>
      <DataArray type="Float64" NumberOfComponents="3" Name="Displacement" format="ascii">
0 0 0
-5.84553e-05 -6.87054e-05 0
-0.000113883 -0.000254252 0
-0.000166322 -0.000550495 0
-0.000215806 -0.000951287 0
-0.00026236 -0.00145048 0
-0.000306005 -0.00204193 0
-0.000346756 -0.00271948 0
-0.000384621 -0.003477 0
-0.000419605 -0.00430832 0
-0.000451708 -0.00520732 0
-0.000480926 -0.00616782 0
-0.00050725 -0.0071837 0
-0.000530669 -0.00824879 0
-0.000551168 -0.00935695 0
-0.00056873 -0.010502 0
-0.000583335 -0.0116779 0
-0.000594962 -0.0128784 0
-0.000603589 -0.0140973 0
-0.000609191 -0.0153286 0
-0.000611735 -0.0165642 0
0 0 0
6.148e-05 -6.68499e-05 0
0.000119837 -0.000252463 0
0.000175033 -0.000548807 0
0.000227034 -0.00094973 0
0.000275814 -0.00144908 0
0.000321354 -0.0020407 0
0.000363639 -0.00271844 0
0.000402659 -0.00347614 0
0.00043841 -0.00430766 0
0.000470892 -0.00520684 0
0.00050011 -0.00616754 0
0.000526072 -0.00718358 0
0.000548789 -0.00824884 0
0.000568276 -0.00935715 0
0.000584551 -0.0105024 0
0.000597632 -0.0116783 0
0.000607541 -0.0128789 0
0.000614301 -0.0140979 0
0.000617937 -0.0153292 0
0.000618472 -0.0165667 0
      </DataArray> 
    </PointData>
    <CellData>
    </CellData>
  </Piece>
  </UnstructuredGrid>
</VTKFile>
