<?xml version="1.0"?>
<VTKFile type="UnstructuredGrid">
  <UnstructuredGrid>
  <Piece NumberOfPoints="42"  NumberOfCells="81">
    <Points>
      <DataArray type="Float64" NumberOfComponents="3" format="ascii">
0 0 0
0.29998 -2.3973e-05 0
0.59996 -8.87001e-05 0
0.899942 -0.000192037 0
1.19992 -0.000331838 0
1.49991 -0.00050596 0
1.79989 -0.000712257 0
2.09988 -0.000948586 0
2.39987 -0.0012128 0
2.69985 -0.00150276 0
2.99984 -0.00181631 0
3.29983 -0.00215131 0
3.59983 -0.00250563 0
3.89982 -0.0028771 0
4.19981 -0.00326359 0
4.49981 -0.00366296 0
4.7998 -0.00407305 0
5.0998 -0.00449172 0
5.39979 -0.00491684 0
5.69979 -0.00534624 0
5.99979 -0.00577714 0
0 0.3 0
0.300021 0.299977 0
0.600042 0.299912 0
0.900061 0.299809 0
1.20008 0.299669 0
1.5001 0.299495 0
1.80011 0.299288 0
2.10013 0.299052 0
2.40014 0.298788 0
2.70015 0.298498 0
3.00017 0.298184 0
3.30018 0.297849 0
3.60019 0.297495 0
3.90019 0.297123 0
4.2002 0.296737 0
4.50021 0.296337 0
4.80021 0.295927 0
5.10022 0.295509 0
5.40022 0.295084 0
5.70022 0.294654 0
6.00022 0.294223 0
      </DataArray>
    </Points>
    <Cells>
      <DataArray type="Int32" Name="connectivity" format="ascii">
0 1
1 2
2 3
3 4
4 5
5 6
6 7
7 8
8 9
9 10
10 11
11 12
12 13
13 14
14 15
15 16
16 17
17 18
18 19
19 20
21 22
22 23
23 24
24 25
25 26
26 27
27 28
28 29
29 30
30 31
31 32
32 33
33 34
34 35
35 36
36 37
37 38
38 39
39 40
40 41
0 21
0 22
1 22
1 23
2 23
2 24
3 24
3 25
4 25
4 26
5 26
5 27
6 27
6 28
7 28
7 29
8 29
8 30
9 30
9 31
10 31
10 32
11 32
11 33
12 33
12 34
13 34
13 35
14 35
14 36
15 36
15 37
16 37
16 38
17 38
17 39
18 39
18 40
19 40
19 41
20 41
      </DataArray>
      <DataArray type="Int32" Name="offsets" format="ascii">
2
4
6
8
10
12
14
16
18
20
22
24
26
28
30
32
34
36
38
40
42
44
46
48
50
52
54
56
58
60
62
64
66
68
70
72
74
76
78
80
82
84
86
88
90
92
94
96
98
100
102
104
106
108
110
112
114
116
118
120
122
124
126
128
130
132
134
136
138
140
142
144
146
148
150
152
154
156
158
160
162
      </DataArray>
      <DataArray type="UInt8" Name="types" format="ascii">
4
4
4
4
4
4
4
4
4
4
4
4
4
4
4
4
4
4
4
4
4
4
4
4
4
4
4
4
4
4
4
4
4
4
4
4
4
4
4
4
4
4
4
4
4
4
4
4
4
4
4
4
4
4
4
4
4
4
4
4
4
4
4
4
4
4
4
4
4
4
4
4
4
4
4
4
4
4
4
4
4
      </DataArray>
    </Cells>
    <PointData>
      <DataArray type="Float64" NumberOfComponents="3" Name="Displacement" format="ascii">
0 0 0
-2.03812e-05 -2.3973e-05 0
-3.96957e-05 -8.87001e-05 0
-5.79482e-05 -0.000192037 0
-7.51427e-05 -0.000331838 0
-9.12824e-05 -0.00050596 0
-0.00010637 -0.000712257 0
-0.000120407 -0.000948586 0
-0.000133394 -0.0012128 0
-0.000145333 -0.00150276 0
-0.000156222 -0.00181631 0
-0.000166062 -0.00215131 0
-0.000174852 -0.00250563 0
-0.00018259 -0.0028771 0
-0.000189274 -0.00326359 0
-0.000194903 -0.00366296 0
-0.000199473 -0.00407305 0
-0.000202983 -0.00449172 0
-0.000205429 -0.00491684 0
-0.000206809 -0.00534624 0
-0.000207118 -0.00577714 0
0 0 0
2.14476e-05 -2.33172e-05 0
4.18168e-05 -8.80523e-05 0
6.11031e-05 -0.000191401 0
7.93023e-05 -0.000331219 0
9.64113e-05 -0.000505359 0
0.000112428 -0.000711678 0
0.00012735 -0.000948028 0
0.000141176 -0.00121227 0
0.000153906 -0.00150225 0
0.00016554 -0.00181582 0
0.000176079 -0.00215085 0
0.000185523 -0.00250518 0
0.000193874 -0.00287668 0
0.000201134 -0.00326319 0
0.000207304 -0.00366257 0
0.000212388 -0.00407267 0
0.000216387 -0.00449136 0
0.000219305 -0.00491648 0
0.000221144 -0.00534589 0
0.000221908 -0.00577745 0
      </DataArray> 
    </PointData>
    <CellData>
    </CellData>
  </Piece>
  </UnstructuredGrid>
</VTKFile>
