<?xml version="1.0"?>
<VTKFile type="UnstructuredGrid">
  <UnstructuredGrid>
  <Piece NumberOfPoints="42"  NumberOfCells="81">
    <Points>
      <DataArray type="Float64" NumberOfComponents="3" format="ascii">
0 0 0
0.29995 -5.88239e-05 0
0.599903 -0.000217677 0
0.899858 -0.000471296 0
1.19982 -0.00081442 0
1.49978 -0.00124179 0
1.79974 -0.00174813 0
2.0997 -0.00232819 0
2.39967 -0.0029767 0
2.69964 -0.0036884 0
2.99961 -0.00445803 0
3.29959 -0.00528031 0
3.59957 -0.00615 0
3.89955 -0.00706182 0
4.19953 -0.00801051 0
4.49951 -0.0089908 0
4.7995 -0.00999744 0
5.09949 -0.0110252 0
5.39949 -0.0120687 0
5.69948 -0.0131228 0
5.99948 -0.0141805 0
0 0.3 0
0.300053 0.299943 0
0.600103 0.299784 0
0.90015 0.29953 0
1.20019 0.299187 0
1.50024 0.298759 0
1.80028 0.298253 0
2.10031 0.297673 0
2.40035 0.297024 0
2.70038 0.296312 0
3.0004 0.295543 0
3.30043 0.29472 0
3.60045 0.29385 0
3.90047 0.292938 0
4.20049 0.29199 0
4.5005 0.291009 0
4.80051 0.290002 0
5.10052 0.288975 0
5.40053 0.287931 0
5.70053 0.286877 0
6.00053 0.285818 0
      </DataArray>
    </Points>
    <Cells>
      <DataArray type="Int32" Name="connectivity" format="ascii">
0 1
1 2
2 3
3 4
4 5
5 6
6 7
7 8
8 9
9 10
10 11
11 12
12 13
13 14
14 15
15 16
16 17
17 18
18 19
19 20
21 22
22 23
23 24
24 25
25 26
26 27
27 28
28 29
29 30
30 31
31 32
32 33
33 34
34 35
35 36
36 37
37 38
38 39
39 40
40 41
0 21
0 22
1 22
1 23
2 23
2 24
3 24
3 25
4 25
4 26
5 26
5 27
6 27
6 28
7 28
7 29
8 29
8 30
9 30
9 31
10 31
10 32
11 32
11 33
12 33
12 34
13 34
13 35
14 35
14 36
15 36
15 37
16 37
16 38
17 38
17 39
18 39
18 40
19 40
19 41
20 41
      </DataArray>
      <DataArray type="Int32" Name="offsets" format="ascii">
2
4
6
8
10
12
14
16
18
20
22
24
26
28
30
32
34
36
38
40
42
44
46
48
50
52
54
56
58
60
62
64
66
68
70
72
74
76
78
80
82
84
86
88
90
92
94
96
98
100
102
104
106
108
110
112
114
116
118
120
122
124
126
128
130
132
134
136
138
140
142
144
146
148
150
152
154
156
158
160
162
      </DataArray>
      <DataArray type="UInt8" Name="types" format="ascii">
4
4
4
4
4
4
4
4
4
4
4
4
4
4
4
4
4
4
4
4
4
4
4
4
4
4
4
4
4
4
4
4
4
4
4
4
4
4
4
4
4
4
4
4
4
4
4
4
4
4
4
4
4
4
4
4
4
4
4
4
4
4
4
4
4
4
4
4
4
4
4
4
4
4
4
4
4
4
4
4
4
      </DataArray>
    </Cells>
    <PointData>
      <DataArray type="Float64" NumberOfComponents="3" Name="Displacement" format="ascii">
0 0 0
-5.00397e-05 -5.88239e-05 0
-9.74815e-05 -0.000217677 0
-0.000142354 -0.000471296 0
-0.000184682 -0.00081442 0
-0.000224484 -0.00124179 0
-0.000261776 -0.00174813 0
-0.000296567 -0.00232819 0
-0.000328864 -0.0029767 0
-0.000358671 -0.0036884 0
-0.000385988 -0.00445803 0
-0.000410811 -0.00528031 0
-0.000433135 -0.00615 0
-0.00045295 -0.00706182 0
-0.000470247 -0.00801051 0
-0.000485012 -0.0089908 0
-0.000497232 -0.00999744 0
-0.00050689 -0.0110252 0
-0.00051397 -0.0120687 0
-0.000518454 -0.0131228 0
-0.000520319 -0.0141805 0
0 0 0
5.26354e-05 -5.72308e-05 0
0.000102603 -0.000216132 0
0.000149875 -0.000469826 0
0.000194427 -0.000813046 0
0.000236239 -0.00124052 0
0.000275298 -0.00174699 0
0.000311592 -0.00232719 0
0.000345115 -0.00297584 0
0.000375863 -0.00368768 0
0.000403836 -0.00445745 0
0.000429038 -0.00527987 0
0.000451475 -0.00614968 0
0.000471156 -0.00706162 0
0.00048809 -0.00801042 0
0.00050229 -0.00899081 0
0.000513772 -0.00999752 0
0.00052255 -0.0110253 0
0.000528641 -0.0120689 0
0.000532063 -0.013123 0
0.000532834 -0.0141823 0
      </DataArray> 
    </PointData>
    <CellData>
    </CellData>
  </Piece>
  </UnstructuredGrid>
</VTKFile>
