<?xml version="1.0"?>
<VTKFile type="UnstructuredGrid">
  <UnstructuredGrid>
  <Piece NumberOfPoints="11"  NumberOfCells="10">
    <Points>
      <DataArray type="Float64" NumberOfComponents="3" format="ascii">
0 0 0
0.100002 0 0
0.200001 0 0
0.300002 0 0
0.399999 0 0
0.499998 0 0
0.599997 0 0
0.7 0 0
0.800008 0 0
0.900016 0 0
1.00002 0 0
      </DataArray>
    </Points>
    <Cells>
      <DataArray type="Int32" Name="connectivity" format="ascii">
0 1
1 2
2 3
3 4
4 5
5 6
6 7
7 8
8 9
9 10
      </DataArray>
      <DataArray type="Int32" Name="offsets" format="ascii">
2
4
6
8
10
12
14
16
18
20
      </DataArray>
      <DataArray type="UInt8" Name="types" format="ascii">
4
4
4
4
4
4
4
4
4
4
      </DataArray>
    </Cells>
    <PointData>
      <DataArray type="Float64" NumberOfComponents="3" Name="Displacement" format="ascii">
0 0 0
2.47161e-06 0 0
1.03266e-06 0 0
1.70688e-06 0 0
-1.19576e-06 0 0
-1.66741e-06 0 0
-2.71901e-06 0 0
-6.43132e-08 0 0
8.04583e-06 0 0
1.58699e-05 0 0
2.34057e-05 0 0
      </DataArray> 
    </PointData>
    <CellData>
    </CellData>
  </Piece>
  </UnstructuredGrid>
</VTKFile>
