<?xml version="1.0"?>
<VTKFile type="UnstructuredGrid">
  <UnstructuredGrid>
  <Piece NumberOfPoints="11"  NumberOfCells="10">
    <Points>
      <DataArray type="Float64" NumberOfComponents="3" format="ascii">
0 0 0
0.100007 0 0
0.200012 0 0
0.30002 0 0
0.400026 0 0
0.500037 0 0
0.60005 0 0
0.700059 0 0
0.800067 0 0
0.900078 0 0
1.00009 0 0
      </DataArray>
    </Points>
    <Cells>
      <DataArray type="Int32" Name="connectivity" format="ascii">
0 1
1 2
2 3
3 4
4 5
5 6
6 7
7 8
8 9
9 10
      </DataArray>
      <DataArray type="Int32" Name="offsets" format="ascii">
2
4
6
8
10
12
14
16
18
20
      </DataArray>
      <DataArray type="UInt8" Name="types" format="ascii">
4
4
4
4
4
4
4
4
4
4
      </DataArray>
    </Cells>
    <PointData>
      <DataArray type="Float64" NumberOfComponents="3" Name="Displacement" format="ascii">
0 0 0
7.41506e-06 0 0
1.15632e-05 0 0
1.97293e-05 0 0
2.61027e-05 0 0
3.70504e-05 0 0
5.00441e-05 0 0
5.93215e-05 0 0
6.71495e-05 0 0
7.78243e-05 0 0
8.98281e-05 0 0
      </DataArray> 
    </PointData>
    <CellData>
    </CellData>
  </Piece>
  </UnstructuredGrid>
</VTKFile>
