<?xml version="1.0"?>
<VTKFile type="UnstructuredGrid">
  <UnstructuredGrid>
  <Piece NumberOfPoints="11"  NumberOfCells="10">
    <Points>
      <DataArray type="Float64" NumberOfComponents="3" format="ascii">
0 0 0
0.100001 0 0
0.200002 0 0
0.300008 0 0
0.400018 0 0
0.500031 0 0
0.60004 0 0
0.700049 0 0
0.800061 0 0
0.900069 0 0
1.00008 0 0
      </DataArray>
    </Points>
    <Cells>
      <DataArray type="Int32" Name="connectivity" format="ascii">
0 1
1 2
2 3
3 4
4 5
5 6
6 7
7 8
8 9
9 10
      </DataArray>
      <DataArray type="Int32" Name="offsets" format="ascii">
2
4
6
8
10
12
14
16
18
20
      </DataArray>
      <DataArray type="UInt8" Name="types" format="ascii">
4
4
4
4
4
4
4
4
4
4
      </DataArray>
    </Cells>
    <PointData>
      <DataArray type="Float64" NumberOfComponents="3" Name="Displacement" format="ascii">
0 0 0
5.40003e-07 0 0
2.33406e-06 0 0
7.56569e-06 0 0
1.81354e-05 0 0
3.11866e-05 0 0
4.03123e-05 0 0
4.87393e-05 0 0
6.0894e-05 0 0
6.90183e-05 0 0
8.05557e-05 0 0
      </DataArray> 
    </PointData>
    <CellData>
    </CellData>
  </Piece>
  </UnstructuredGrid>
</VTKFile>
