<?xml version="1.0"?>
<VTKFile type="UnstructuredGrid">
  <UnstructuredGrid>
  <Piece NumberOfPoints="11"  NumberOfCells="10">
    <Points>
      <DataArray type="Float64" NumberOfComponents="3" format="ascii">
0 0 0
0.100018 0 0
0.200041 0 0
0.300064 0 0
0.400079 0 0
0.500092 0 0
0.600104 0 0
0.700113 0 0
0.800124 0 0
0.900133 0 0
1.00014 0 0
      </DataArray>
    </Points>
    <Cells>
      <DataArray type="Int32" Name="connectivity" format="ascii">
0 1
1 2
2 3
3 4
4 5
5 6
6 7
7 8
8 9
9 10
      </DataArray>
      <DataArray type="Int32" Name="offsets" format="ascii">
2
4
6
8
10
12
14
16
18
20
      </DataArray>
      <DataArray type="UInt8" Name="types" format="ascii">
4
4
4
4
4
4
4
4
4
4
      </DataArray>
    </Cells>
    <PointData>
      <DataArray type="Float64" NumberOfComponents="3" Name="Displacement" format="ascii">
0 0 0
1.83995e-05 0 0
4.11951e-05 0 0
6.37174e-05 0 0
7.87808e-05 0 0
9.16497e-05 0 0
0.000103821 0 0
0.000112598 0 0
0.000124175 0 0
0.000132847 0 0
0.000144059 0 0
      </DataArray> 
    </PointData>
    <CellData>
    </CellData>
  </Piece>
  </UnstructuredGrid>
</VTKFile>
