<?xml version="1.0"?>
<VTKFile type="UnstructuredGrid">
  <UnstructuredGrid>
  <Piece NumberOfPoints="11"  NumberOfCells="10">
    <Points>
      <DataArray type="Float64" NumberOfComponents="3" format="ascii">
0 0 0
0.100002 0 0
0.200003 0 0
0.300005 0 0
0.400005 0 0
0.50001 0 0
0.600018 0 0
0.700027 0 0
0.800038 0 0
0.900053 0 0
1.00006 0 0
      </DataArray>
    </Points>
    <Cells>
      <DataArray type="Int32" Name="connectivity" format="ascii">
0 1
1 2
2 3
3 4
4 5
5 6
6 7
7 8
8 9
9 10
      </DataArray>
      <DataArray type="Int32" Name="offsets" format="ascii">
2
4
6
8
10
12
14
16
18
20
      </DataArray>
      <DataArray type="UInt8" Name="types" format="ascii">
4
4
4
4
4
4
4
4
4
4
      </DataArray>
    </Cells>
    <PointData>
      <DataArray type="Float64" NumberOfComponents="3" Name="Displacement" format="ascii">
0 0 0
1.99574e-06 0 0
3.14991e-06 0 0
5.22083e-06 0 0
4.84576e-06 0 0
1.0415e-05 0 0
1.7994e-05 0 0
2.66102e-05 0 0
3.84826e-05 0 0
5.2925e-05 0 0
6.26428e-05 0 0
      </DataArray> 
    </PointData>
    <CellData>
    </CellData>
  </Piece>
  </UnstructuredGrid>
</VTKFile>
