<?xml version="1.0"?>
<VTKFile type="UnstructuredGrid">
  <UnstructuredGrid>
  <Piece NumberOfPoints="11"  NumberOfCells="10">
    <Points>
      <DataArray type="Float64" NumberOfComponents="3" format="ascii">
0 0 0
0.100022 0 0
0.200044 0 0
0.300065 0 0
0.400081 0 0
0.500099 0 0
0.600116 0 0
0.700131 0 0
0.800145 0 0
0.900152 0 0
1.00016 0 0
      </DataArray>
    </Points>
    <Cells>
      <DataArray type="Int32" Name="connectivity" format="ascii">
0 1
1 2
2 3
3 4
4 5
5 6
6 7
7 8
8 9
9 10
      </DataArray>
      <DataArray type="Int32" Name="offsets" format="ascii">
2
4
6
8
10
12
14
16
18
20
      </DataArray>
      <DataArray type="UInt8" Name="types" format="ascii">
4
4
4
4
4
4
4
4
4
4
      </DataArray>
    </Cells>
    <PointData>
      <DataArray type="Float64" NumberOfComponents="3" Name="Displacement" format="ascii">
0 0 0
2.20538e-05 0 0
4.40065e-05 0 0
6.46464e-05 0 0
8.06095e-05 0 0
9.85788e-05 0 0
0.000116072 0 0
0.000130536 0 0
0.000144563 0 0
0.000152086 0 0
0.000160496 0 0
      </DataArray> 
    </PointData>
    <CellData>
    </CellData>
  </Piece>
  </UnstructuredGrid>
</VTKFile>
