<?xml version="1.0"?>
<VTKFile type="UnstructuredGrid">
  <UnstructuredGrid>
  <Piece NumberOfPoints="11"  NumberOfCells="10">
    <Points>
      <DataArray type="Float64" NumberOfComponents="3" format="ascii">
0 0 0
0.0999961 0 0
0.199994 0 0
0.299994 0 0
0.400002 0 0
0.500009 0 0
0.600016 0 0
0.700021 0 0
0.800032 0 0
0.900043 0 0
1.00005 0 0
      </DataArray>
    </Points>
    <Cells>
      <DataArray type="Int32" Name="connectivity" format="ascii">
0 1
1 2
2 3
3 4
4 5
5 6
6 7
7 8
8 9
9 10
      </DataArray>
      <DataArray type="Int32" Name="offsets" format="ascii">
2
4
6
8
10
12
14
16
18
20
      </DataArray>
      <DataArray type="UInt8" Name="types" format="ascii">
4
4
4
4
4
4
4
4
4
4
      </DataArray>
    </Cells>
    <PointData>
      <DataArray type="Float64" NumberOfComponents="3" Name="Displacement" format="ascii">
0 0 0
-3.91241e-06 0 0
-6.38724e-06 0 0
-6.2016e-06 0 0
2.1686e-06 0 0
9.33511e-06 0 0
1.63355e-05 0 0
2.11173e-05 0 0
3.21357e-05 0 0
4.28363e-05 0 0
5.2315e-05 0 0
      </DataArray> 
    </PointData>
    <CellData>
    </CellData>
  </Piece>
  </UnstructuredGrid>
</VTKFile>
