<?xml version="1.0"?>
<VTKFile type="UnstructuredGrid">
  <UnstructuredGrid>
  <Piece NumberOfPoints="11"  NumberOfCells="10">
    <Points>
      <DataArray type="Float64" NumberOfComponents="3" format="ascii">
0 0 0
0.100005 0 0
0.200004 0 0
0.300002 0 0
0.4 0 0
0.499998 0 0
0.599998 0 0
0.699999 0 0
0.800004 0 0
0.90001 0 0
1.00002 0 0
      </DataArray>
    </Points>
    <Cells>
      <DataArray type="Int32" Name="connectivity" format="ascii">
0 1
1 2
2 3
3 4
4 5
5 6
6 7
7 8
8 9
9 10
      </DataArray>
      <DataArray type="Int32" Name="offsets" format="ascii">
2
4
6
8
10
12
14
16
18
20
      </DataArray>
      <DataArray type="UInt8" Name="types" format="ascii">
4
4
4
4
4
4
4
4
4
4
      </DataArray>
    </Cells>
    <PointData>
      <DataArray type="Float64" NumberOfComponents="3" Name="Displacement" format="ascii">
0 0 0
5.11485e-06 0 0
3.76664e-06 0 0
2.10071e-06 0 0
7.67657e-08 0 0
-2.2477e-06 0 0
-2.48059e-06 0 0
-7.70595e-07 0 0
3.60098e-06 0 0
9.6486e-06 0 0
1.59843e-05 0 0
      </DataArray> 
    </PointData>
    <CellData>
    </CellData>
  </Piece>
  </UnstructuredGrid>
</VTKFile>
