<?xml version="1.0"?>
<VTKFile type="UnstructuredGrid">
  <UnstructuredGrid>
  <Piece NumberOfPoints="11"  NumberOfCells="10">
    <Points>
      <DataArray type="Float64" NumberOfComponents="3" format="ascii">
0 0 0
0.099999 0 0
0.199998 0 0
0.300002 0 0
0.400004 0 0
0.500006 0 0
0.600006 0 0
0.700008 0 0
0.800011 0 0
0.900014 0 0
1.00002 0 0
      </DataArray>
    </Points>
    <Cells>
      <DataArray type="Int32" Name="connectivity" format="ascii">
0 1
1 2
2 3
3 4
4 5
5 6
6 7
7 8
8 9
9 10
      </DataArray>
      <DataArray type="Int32" Name="offsets" format="ascii">
2
4
6
8
10
12
14
16
18
20
      </DataArray>
      <DataArray type="UInt8" Name="types" format="ascii">
4
4
4
4
4
4
4
4
4
4
      </DataArray>
    </Cells>
    <PointData>
      <DataArray type="Float64" NumberOfComponents="3" Name="Displacement" format="ascii">
0 0 0
-1.03556e-06 0 0
-2.32639e-06 0 0
2.01509e-06 0 0
4.12731e-06 0 0
5.52458e-06 0 0
5.65847e-06 0 0
8.00137e-06 0 0
1.05548e-05 0 0
1.3726e-05 0 0
1.86029e-05 0 0
      </DataArray> 
    </PointData>
    <CellData>
    </CellData>
  </Piece>
  </UnstructuredGrid>
</VTKFile>
