<?xml version="1.0"?>
<VTKFile type="UnstructuredGrid">
  <UnstructuredGrid>
  <Piece NumberOfPoints="11"  NumberOfCells="10">
    <Points>
      <DataArray type="Float64" NumberOfComponents="3" format="ascii">
0 0 0
0.100001 0 0
0.200002 0 0
0.299997 0 0
0.399997 0 0
0.499999 0 0
0.600006 0 0
0.700014 0 0
0.800021 0 0
0.900031 0 0
1.00004 0 0
      </DataArray>
    </Points>
    <Cells>
      <DataArray type="Int32" Name="connectivity" format="ascii">
0 1
1 2
2 3
3 4
4 5
5 6
6 7
7 8
8 9
9 10
      </DataArray>
      <DataArray type="Int32" Name="offsets" format="ascii">
2
4
6
8
10
12
14
16
18
20
      </DataArray>
      <DataArray type="UInt8" Name="types" format="ascii">
4
4
4
4
4
4
4
4
4
4
      </DataArray>
    </Cells>
    <PointData>
      <DataArray type="Float64" NumberOfComponents="3" Name="Displacement" format="ascii">
0 0 0
1.39282e-06 0 0
1.86242e-06 0 0
-3.20749e-06 0 0
-3.37324e-06 0 0
-1.16075e-06 0 0
5.71417e-06 0 0
1.40334e-05 0 0
2.07101e-05 0 0
3.11851e-05 0 0
4.25545e-05 0 0
      </DataArray> 
    </PointData>
    <CellData>
    </CellData>
  </Piece>
  </UnstructuredGrid>
</VTKFile>
