<?xml version="1.0"?>
<VTKFile type="UnstructuredGrid">
  <UnstructuredGrid>
  <Piece NumberOfPoints="11"  NumberOfCells="10">
    <Points>
      <DataArray type="Float64" NumberOfComponents="3" format="ascii">
0 0 0
0.1 0 0
0.200004 0 0
0.300001 0 0
0.399997 0 0
0.499995 0 0
0.599998 0 0
0.700004 0 0
0.800012 0 0
0.900018 0 0
1.00003 0 0
      </DataArray>
    </Points>
    <Cells>
      <DataArray type="Int32" Name="connectivity" format="ascii">
0 1
1 2
2 3
3 4
4 5
5 6
6 7
7 8
8 9
9 10
      </DataArray>
      <DataArray type="Int32" Name="offsets" format="ascii">
2
4
6
8
10
12
14
16
18
20
      </DataArray>
      <DataArray type="UInt8" Name="types" format="ascii">
4
4
4
4
4
4
4
4
4
4
      </DataArray>
    </Cells>
    <PointData>
      <DataArray type="Float64" NumberOfComponents="3" Name="Displacement" format="ascii">
0 0 0
4.24241e-07 0 0
3.74761e-06 0 0
1.18077e-06 0 0
-2.58637e-06 0 0
-4.5002e-06 0 0
-2.00423e-06 0 0
3.82942e-06 0 0
1.17835e-05 0 0
1.75838e-05 0 0
2.6351e-05 0 0
      </DataArray> 
    </PointData>
    <CellData>
    </CellData>
  </Piece>
  </UnstructuredGrid>
</VTKFile>
