<?xml version="1.0"?>
<VTKFile type="UnstructuredGrid">
  <UnstructuredGrid>
  <Piece NumberOfPoints="11"  NumberOfCells="10">
    <Points>
      <DataArray type="Float64" NumberOfComponents="3" format="ascii">
0 0 0
0.100004 0 0
0.20001 0 0
0.300017 0 0
0.400029 0 0
0.50004 0 0
0.600053 0 0
0.700065 0 0
0.800075 0 0
0.900081 0 0
1.00009 0 0
      </DataArray>
    </Points>
    <Cells>
      <DataArray type="Int32" Name="connectivity" format="ascii">
0 1
1 2
2 3
3 4
4 5
5 6
6 7
7 8
8 9
9 10
      </DataArray>
      <DataArray type="Int32" Name="offsets" format="ascii">
2
4
6
8
10
12
14
16
18
20
      </DataArray>
      <DataArray type="UInt8" Name="types" format="ascii">
4
4
4
4
4
4
4
4
4
4
      </DataArray>
    </Cells>
    <PointData>
      <DataArray type="Float64" NumberOfComponents="3" Name="Displacement" format="ascii">
0 0 0
3.53817e-06 0 0
1.04917e-05 0 0
1.72086e-05 0 0
2.92037e-05 0 0
3.96034e-05 0 0
5.26426e-05 0 0
6.45162e-05 0 0
7.46546e-05 0 0
8.09269e-05 0 0
8.87949e-05 0 0
      </DataArray> 
    </PointData>
    <CellData>
    </CellData>
  </Piece>
  </UnstructuredGrid>
</VTKFile>
