<?xml version="1.0"?>
<VTKFile type="UnstructuredGrid">
  <UnstructuredGrid>
  <Piece NumberOfPoints="11"  NumberOfCells="10">
    <Points>
      <DataArray type="Float64" NumberOfComponents="3" format="ascii">
0 0 0
0.10001 0 0
0.200018 0 0
0.300026 0 0
0.400033 0 0
0.500042 0 0
0.600055 0 0
0.700064 0 0
0.800075 0 0
0.900084 0 0
1.00009 0 0
      </DataArray>
    </Points>
    <Cells>
      <DataArray type="Int32" Name="connectivity" format="ascii">
0 1
1 2
2 3
3 4
4 5
5 6
6 7
7 8
8 9
9 10
      </DataArray>
      <DataArray type="Int32" Name="offsets" format="ascii">
2
4
6
8
10
12
14
16
18
20
      </DataArray>
      <DataArray type="UInt8" Name="types" format="ascii">
4
4
4
4
4
4
4
4
4
4
      </DataArray>
    </Cells>
    <PointData>
      <DataArray type="Float64" NumberOfComponents="3" Name="Displacement" format="ascii">
0 0 0
1.03463e-05 0 0
1.84945e-05 0 0
2.64409e-05 0 0
3.25569e-05 0 0
4.21444e-05 0 0
5.5292e-05 0 0
6.4438e-05 0 0
7.4991e-05 0 0
8.36213e-05 0 0
9.43249e-05 0 0
      </DataArray> 
    </PointData>
    <CellData>
    </CellData>
  </Piece>
  </UnstructuredGrid>
</VTKFile>
