<?xml version="1.0"?>
<VTKFile type="UnstructuredGrid">
  <UnstructuredGrid>
  <Piece NumberOfPoints="11"  NumberOfCells="10">
    <Points>
      <DataArray type="Float64" NumberOfComponents="3" format="ascii">
0 0 0
0.100023 0 0
0.200044 0 0
0.300065 0 0
0.40008 0 0
0.500098 0 0
0.600115 0 0
0.700129 0 0
0.800143 0 0
0.900151 0 0
1.00016 0 0
      </DataArray>
    </Points>
    <Cells>
      <DataArray type="Int32" Name="connectivity" format="ascii">
0 1
1 2
2 3
3 4
4 5
5 6
6 7
7 8
8 9
9 10
      </DataArray>
      <DataArray type="Int32" Name="offsets" format="ascii">
2
4
6
8
10
12
14
16
18
20
      </DataArray>
      <DataArray type="UInt8" Name="types" format="ascii">
4
4
4
4
4
4
4
4
4
4
      </DataArray>
    </Cells>
    <PointData>
      <DataArray type="Float64" NumberOfComponents="3" Name="Displacement" format="ascii">
0 0 0
2.32059e-05 0 0
4.44927e-05 0 0
6.50237e-05 0 0
8.03815e-05 0 0
9.82289e-05 0 0
0.000114759 0 0
0.000128879 0 0
0.000142908 0 0
0.000150809 0 0
0.000158661 0 0
      </DataArray> 
    </PointData>
    <CellData>
    </CellData>
  </Piece>
  </UnstructuredGrid>
</VTKFile>
