<?xml version="1.0"?>
<VTKFile type="UnstructuredGrid">
  <UnstructuredGrid>
  <Piece NumberOfPoints="11"  NumberOfCells="10">
    <Points>
      <DataArray type="Float64" NumberOfComponents="3" format="ascii">
0 0 0
0.100005 0 0
0.20001 0 0
0.300014 0 0
0.400021 0 0
0.500027 0 0
0.600041 0 0
0.700052 0 0
0.800062 0 0
0.900071 0 0
1.00008 0 0
      </DataArray>
    </Points>
    <Cells>
      <DataArray type="Int32" Name="connectivity" format="ascii">
0 1
1 2
2 3
3 4
4 5
5 6
6 7
7 8
8 9
9 10
      </DataArray>
      <DataArray type="Int32" Name="offsets" format="ascii">
2
4
6
8
10
12
14
16
18
20
      </DataArray>
      <DataArray type="UInt8" Name="types" format="ascii">
4
4
4
4
4
4
4
4
4
4
      </DataArray>
    </Cells>
    <PointData>
      <DataArray type="Float64" NumberOfComponents="3" Name="Displacement" format="ascii">
0 0 0
5.27328e-06 0 0
9.59705e-06 0 0
1.43108e-05 0 0
2.12543e-05 0 0
2.71668e-05 0 0
4.1101e-05 0 0
5.18048e-05 0 0
6.18987e-05 0 0
7.09066e-05 0 0
7.98827e-05 0 0
      </DataArray> 
    </PointData>
    <CellData>
    </CellData>
  </Piece>
  </UnstructuredGrid>
</VTKFile>
