<?xml version="1.0"?>
<VTKFile type="UnstructuredGrid">
  <UnstructuredGrid>
  <Piece NumberOfPoints="11"  NumberOfCells="10">
    <Points>
      <DataArray type="Float64" NumberOfComponents="3" format="ascii">
0 0 0
0.100002 0 0
0.2 0 0
0.3 0 0
0.4 0 0
0.500004 0 0
0.600004 0 0
0.700001 0 0
0.800001 0 0
0.900003 0 0
1.00001 0 0
      </DataArray>
    </Points>
    <Cells>
      <DataArray type="Int32" Name="connectivity" format="ascii">
0 1
1 2
2 3
3 4
4 5
5 6
6 7
7 8
8 9
9 10
      </DataArray>
      <DataArray type="Int32" Name="offsets" format="ascii">
2
4
6
8
10
12
14
16
18
20
      </DataArray>
      <DataArray type="UInt8" Name="types" format="ascii">
4
4
4
4
4
4
4
4
4
4
      </DataArray>
    </Cells>
    <PointData>
      <DataArray type="Float64" NumberOfComponents="3" Name="Displacement" format="ascii">
0 0 0
1.87551e-06 0 0
-4.95891e-07 0 0
-2.97005e-07 0 0
-3.5671e-07 0 0
4.2112e-06 0 0
3.50852e-06 0 0
6.04439e-07 0 0
8.86877e-07 0 0
3.45396e-06 0 0
8.46036e-06 0 0
      </DataArray> 
    </PointData>
    <CellData>
    </CellData>
  </Piece>
  </UnstructuredGrid>
</VTKFile>
