<?xml version="1.0"?>
<VTKFile type="UnstructuredGrid">
  <UnstructuredGrid>
  <Piece NumberOfPoints="11"  NumberOfCells="10">
    <Points>
      <DataArray type="Float64" NumberOfComponents="3" format="ascii">
0 0 0
0.100002 0 0
0.200003 0 0
0.299997 0 0
0.399996 0 0
0.499998 0 0
0.600004 0 0
0.70001 0 0
0.800018 0 0
0.900027 0 0
1.00004 0 0
      </DataArray>
    </Points>
    <Cells>
      <DataArray type="Int32" Name="connectivity" format="ascii">
0 1
1 2
2 3
3 4
4 5
5 6
6 7
7 8
8 9
9 10
      </DataArray>
      <DataArray type="Int32" Name="offsets" format="ascii">
2
4
6
8
10
12
14
16
18
20
      </DataArray>
      <DataArray type="UInt8" Name="types" format="ascii">
4
4
4
4
4
4
4
4
4
4
      </DataArray>
    </Cells>
    <PointData>
      <DataArray type="Float64" NumberOfComponents="3" Name="Displacement" format="ascii">
0 0 0
2.43073e-06 0 0
3.00614e-06 0 0
-3.01598e-06 0 0
-3.79349e-06 0 0
-1.84891e-06 0 0
3.51229e-06 0 0
9.73222e-06 0 0
1.80166e-05 0 0
2.7319e-05 0 0
3.84458e-05 0 0
      </DataArray> 
    </PointData>
    <CellData>
    </CellData>
  </Piece>
  </UnstructuredGrid>
</VTKFile>
