<?xml version="1.0"?>
<VTKFile type="UnstructuredGrid">
  <UnstructuredGrid>
  <Piece NumberOfPoints="11"  NumberOfCells="10">
    <Points>
      <DataArray type="Float64" NumberOfComponents="3" format="ascii">
0 0 0
0.0999999 0 0
0.2 0 0
0.300002 0 0
0.400003 0 0
0.500006 0 0
0.600009 0 0
0.700016 0 0
0.800028 0 0
0.900043 0 0
1.00005 0 0
      </DataArray>
    </Points>
    <Cells>
      <DataArray type="Int32" Name="connectivity" format="ascii">
0 1
1 2
2 3
3 4
4 5
5 6
6 7
7 8
8 9
9 10
      </DataArray>
      <DataArray type="Int32" Name="offsets" format="ascii">
2
4
6
8
10
12
14
16
18
20
      </DataArray>
      <DataArray type="UInt8" Name="types" format="ascii">
4
4
4
4
4
4
4
4
4
4
      </DataArray>
    </Cells>
    <PointData>
      <DataArray type="Float64" NumberOfComponents="3" Name="Displacement" format="ascii">
0 0 0
-7.47856e-08 0 0
1.62524e-07 0 0
2.30669e-06 0 0
3.10021e-06 0 0
5.87908e-06 0 0
8.87692e-06 0 0
1.55221e-05 0 0
2.81193e-05 0 0
4.25049e-05 0 0
5.14083e-05 0 0
      </DataArray> 
    </PointData>
    <CellData>
    </CellData>
  </Piece>
  </UnstructuredGrid>
</VTKFile>
