<?xml version="1.0"?>
<VTKFile type="UnstructuredGrid">
  <UnstructuredGrid>
  <Piece NumberOfPoints="13"  NumberOfCells="23">
    <Points>
      <DataArray type="Float64" NumberOfComponents="3" format="ascii">
0 0 0
3.01365 0.0955997 0
6.01672 0.329779 0
9.00366 0.682271 0
11.9731 1.1232 0
14.928 1.61446 0
15.8367 2.26272 0
14.7756 2.60351 0
11.8313 2.11236 0
8.88452 1.67443 0
5.93069 1.32539 0
2.96848 1.094 0
0 1 0
      </DataArray>
    </Points>
    <Cells>
      <DataArray type="Int32" Name="connectivity" format="ascii">
0 1
1 2
2 3
3 4
4 5
5 6
0 12
0 11
1 11
1 10
2 10
2 9
3 9
3 8
4 8
4 7
5 7
7 6
11 12
11 10
10 9
8 9
7 8
      </DataArray>
      <DataArray type="Int32" Name="offsets" format="ascii">
2
4
6
8
10
12
14
16
18
20
22
24
26
28
30
32
34
36
38
40
42
44
46
      </DataArray>
      <DataArray type="UInt8" Name="types" format="ascii">
4
4
4
4
4
4
4
4
4
4
4
4
4
4
4
4
4
4
4
4
4
4
4
      </DataArray>
    </Cells>
    <PointData>
      <DataArray type="Float64" NumberOfComponents="3" Name="Displacement" format="ascii">
0 0 0
0.0136518 0.0955997 0
0.0167182 0.329779 0
0.0036551 0.682271 0
-0.0269397 1.1232 0
-0.0719569 1.61446 0
-0.163328 1.76272 0
-0.224436 1.60351 0
-0.168734 1.11236 0
-0.115475 0.674426 0
-0.0693091 0.325395 0
-0.0315215 0.0940027 0
0 0 0
      </DataArray> 
    </PointData>
    <CellData>
    </CellData>
  </Piece>
  </UnstructuredGrid>
</VTKFile>
