<?xml version="1.0"?>
<VTKFile type="UnstructuredGrid">
  <UnstructuredGrid>
  <Piece NumberOfPoints="13"  NumberOfCells="23">
    <Points>
      <DataArray type="Float64" NumberOfComponents="3" format="ascii">
0 0 0
2.99724 0.0248697 0
5.99388 0.0655021 0
8.98977 0.11926 0
11.9848 0.182657 0
14.979 0.250667 0
15.9677 0.768274 0
14.9619 1.25134 0
11.9687 1.18245 0
8.97614 1.1191 0
5.98392 1.0654 0
2.99192 1.02481 0
0 1 0
      </DataArray>
    </Points>
    <Cells>
      <DataArray type="Int32" Name="connectivity" format="ascii">
0 1
1 2
2 3
3 4
4 5
5 6
0 12
0 11
1 11
1 10
2 10
2 9
3 9
3 8
4 8
4 7
5 7
7 6
11 12
11 10
10 9
8 9
7 8
      </DataArray>
      <DataArray type="Int32" Name="offsets" format="ascii">
2
4
6
8
10
12
14
16
18
20
22
24
26
28
30
32
34
36
38
40
42
44
46
      </DataArray>
      <DataArray type="UInt8" Name="types" format="ascii">
4
4
4
4
4
4
4
4
4
4
4
4
4
4
4
4
4
4
4
4
4
4
4
      </DataArray>
    </Cells>
    <PointData>
      <DataArray type="Float64" NumberOfComponents="3" Name="Displacement" format="ascii">
0 0 0
-0.00276087 0.0248697 0
-0.00611513 0.0655021 0
-0.0102337 0.11926 0
-0.0151991 0.182657 0
-0.0209775 0.250667 0
-0.0323327 0.268274 0
-0.0381378 0.251345 0
-0.0312675 0.182451 0
-0.0238593 0.119098 0
-0.0160796 0.0653951 0
-0.00808315 0.0248135 0
0 0 0
      </DataArray> 
    </PointData>
    <CellData>
    </CellData>
  </Piece>
  </UnstructuredGrid>
</VTKFile>
