<?xml version="1.0"?>
<VTKFile type="UnstructuredGrid">
  <UnstructuredGrid>
  <Piece NumberOfPoints="13"  NumberOfCells="23">
    <Points>
      <DataArray type="Float64" NumberOfComponents="3" format="ascii">
0 0 0
2.99993 0.000218396 0
5.99986 0.000437554 0
8.99978 0.000657283 0
11.9997 0.000877391 0
14.9996 0.00108558 0
15.9996 0.501092 0
14.9996 1.0011 0
11.9997 1.00088 0
8.99978 1.00066 0
5.99985 1.00044 0
2.99993 1.00022 0
0 1 0
      </DataArray>
    </Points>
    <Cells>
      <DataArray type="Int32" Name="connectivity" format="ascii">
0 1
1 2
2 3
3 4
4 5
5 6
0 12
0 11
1 11
1 10
2 10
2 9
3 9
3 8
4 8
4 7
5 7
7 6
11 12
11 10
10 9
8 9
7 8
      </DataArray>
      <DataArray type="Int32" Name="offsets" format="ascii">
2
4
6
8
10
12
14
16
18
20
22
24
26
28
30
32
34
36
38
40
42
44
46
      </DataArray>
      <DataArray type="UInt8" Name="types" format="ascii">
4
4
4
4
4
4
4
4
4
4
4
4
4
4
4
4
4
4
4
4
4
4
4
      </DataArray>
    </Cells>
    <PointData>
      <DataArray type="Float64" NumberOfComponents="3" Name="Displacement" format="ascii">
0 0 0
-7.24837e-05 0.000218396 0
-0.000144999 0.000437554 0
-0.000217547 0.000657283 0
-0.000290126 0.000877391 0
-0.000362736 0.00108558 0
-0.000399979 0.00109242 0
-0.000363528 0.00109768 0
-0.000290886 0.000877388 0
-0.000218213 0.000657279 0
-0.000145507 0.000437551 0
-7.27692e-05 0.000218393 0
0 0 0
      </DataArray> 
    </PointData>
    <CellData>
    </CellData>
  </Piece>
  </UnstructuredGrid>
</VTKFile>
