<?xml version="1.0"?>
<VTKFile type="UnstructuredGrid">
  <UnstructuredGrid>
  <Piece NumberOfPoints="13"  NumberOfCells="23">
    <Points>
      <DataArray type="Float64" NumberOfComponents="3" format="ascii">
0 0 0
2.99725 0.0112559 0
5.9944 0.0251694 0
8.99144 0.0411994 0
11.9884 0.0587227 0
14.9852 0.0765183 0
15.9821 0.579622 0
14.9823 1.07704 0
11.9857 1.05871 0
8.98913 1.04118 0
5.99268 1.02516 0
2.99631 1.01125 0
0 1 0
      </DataArray>
    </Points>
    <Cells>
      <DataArray type="Int32" Name="connectivity" format="ascii">
0 1
1 2
2 3
3 4
4 5
5 6
0 12
0 11
1 11
1 10
2 10
2 9
3 9
3 8
4 8
4 7
5 7
7 6
11 12
11 10
10 9
8 9
7 8
      </DataArray>
      <DataArray type="Int32" Name="offsets" format="ascii">
2
4
6
8
10
12
14
16
18
20
22
24
26
28
30
32
34
36
38
40
42
44
46
      </DataArray>
      <DataArray type="UInt8" Name="types" format="ascii">
4
4
4
4
4
4
4
4
4
4
4
4
4
4
4
4
4
4
4
4
4
4
4
      </DataArray>
    </Cells>
    <PointData>
      <DataArray type="Float64" NumberOfComponents="3" Name="Displacement" format="ascii">
0 0 0
-0.00275112 0.0112559 0
-0.00560152 0.0251694 0
-0.00856402 0.0411994 0
-0.0116459 0.0587227 0
-0.0148438 0.0765183 0
-0.0178701 0.0796218 0
-0.0176782 0.0770351 0
-0.0143266 0.0587065 0
-0.0108687 0.0411849 0
-0.00731759 0.0251573 0
-0.00368886 0.0112465 0
0 0 0
      </DataArray> 
    </PointData>
    <CellData>
    </CellData>
  </Piece>
  </UnstructuredGrid>
</VTKFile>
