<?xml version="1.0"?>
<VTKFile type="UnstructuredGrid">
  <UnstructuredGrid>
  <Piece NumberOfPoints="13"  NumberOfCells="23">
    <Points>
      <DataArray type="Float64" NumberOfComponents="3" format="ascii">
0 0 0
3.02111 0.127355 0
6.02347 0.450142 0
8.99691 0.939126 0
11.9392 1.55161 0
14.8568 2.23428 0
15.7228 2.93901 0
14.6426 3.21167 0
11.74 2.53049 0
8.82947 1.9239 0
5.90253 1.4417 0
2.95763 1.12434 0
0 1 0
      </DataArray>
    </Points>
    <Cells>
      <DataArray type="Int32" Name="connectivity" format="ascii">
0 1
1 2
2 3
3 4
4 5
5 6
0 12
0 11
1 11
1 10
2 10
2 9
3 9
3 8
4 8
4 7
5 7
7 6
11 12
11 10
10 9
8 9
7 8
      </DataArray>
      <DataArray type="Int32" Name="offsets" format="ascii">
2
4
6
8
10
12
14
16
18
20
22
24
26
28
30
32
34
36
38
40
42
44
46
      </DataArray>
      <DataArray type="UInt8" Name="types" format="ascii">
4
4
4
4
4
4
4
4
4
4
4
4
4
4
4
4
4
4
4
4
4
4
4
      </DataArray>
    </Cells>
    <PointData>
      <DataArray type="Float64" NumberOfComponents="3" Name="Displacement" format="ascii">
0 0 0
0.0211063 0.127355 0
0.0234731 0.450142 0
-0.00309039 0.939126 0
-0.0607582 1.55161 0
-0.14318 2.23428 0
-0.277167 2.43901 0
-0.357415 2.21167 0
-0.259973 1.53049 0
-0.17053 0.923898 0
-0.0974723 0.4417 0
-0.0423743 0.124337 0
0 0 0
      </DataArray> 
    </PointData>
    <CellData>
    </CellData>
  </Piece>
  </UnstructuredGrid>
</VTKFile>
