<?xml version="1.0"?>
<VTKFile type="UnstructuredGrid">
  <UnstructuredGrid>
  <Piece NumberOfPoints="13"  NumberOfCells="23">
    <Points>
      <DataArray type="Float64" NumberOfComponents="3" format="ascii">
0 0 0
2.99827 0.00597278 0
5.99651 0.0126035 0
8.99472 0.0197442 0
11.9929 0.0272353 0
14.9911 0.0346004 0
15.9898 0.535448 0
14.9904 1.0349 0
11.9922 1.02723 0
8.99415 1.01974 0
5.99608 1.0126 0
2.99803 1.00597 0
0 1 0
      </DataArray>
    </Points>
    <Cells>
      <DataArray type="Int32" Name="connectivity" format="ascii">
0 1
1 2
2 3
3 4
4 5
5 6
0 12
0 11
1 11
1 10
2 10
2 9
3 9
3 8
4 8
4 7
5 7
7 6
11 12
11 10
10 9
8 9
7 8
      </DataArray>
      <DataArray type="Int32" Name="offsets" format="ascii">
2
4
6
8
10
12
14
16
18
20
22
24
26
28
30
32
34
36
38
40
42
44
46
      </DataArray>
      <DataArray type="UInt8" Name="types" format="ascii">
4
4
4
4
4
4
4
4
4
4
4
4
4
4
4
4
4
4
4
4
4
4
4
      </DataArray>
    </Cells>
    <PointData>
      <DataArray type="Float64" NumberOfComponents="3" Name="Displacement" format="ascii">
0 0 0
-0.00173252 0.00597278 0
-0.00349078 0.0126035 0
-0.00527644 0.0197442 0
-0.00709046 0.0272353 0
-0.00893179 0.0346004 0
-0.0102101 0.0354475 0
-0.00962539 0.0349044 0
-0.00775057 0.027232 0
-0.00584869 0.019741 0
-0.00392143 0.0126006 0
-0.00197099 0.00597018 0
0 0 0
      </DataArray> 
    </PointData>
    <CellData>
    </CellData>
  </Piece>
  </UnstructuredGrid>
</VTKFile>
