<?xml version="1.0"?>
<VTKFile type="UnstructuredGrid">
  <UnstructuredGrid>
  <Piece NumberOfPoints="13"  NumberOfCells="23">
    <Points>
      <DataArray type="Float64" NumberOfComponents="3" format="ascii">
0 0 0
2.99775 0.0285083 0
5.99468 0.0779054 0
8.99055 0.144805 0
11.9852 0.224628 0
14.9788 0.310937 0
15.9643 0.834196 0
14.956 1.31153 0
11.9639 1.2243 0
8.9725 1.14455 0
5.98152 1.07774 0
2.99074 1.02843 0
0 1 0
      </DataArray>
    </Points>
    <Cells>
      <DataArray type="Int32" Name="connectivity" format="ascii">
0 1
1 2
2 3
3 4
4 5
5 6
0 12
0 11
1 11
1 10
2 10
2 9
3 9
3 8
4 8
4 7
5 7
7 6
11 12
11 10
10 9
8 9
7 8
      </DataArray>
      <DataArray type="Int32" Name="offsets" format="ascii">
2
4
6
8
10
12
14
16
18
20
22
24
26
28
30
32
34
36
38
40
42
44
46
      </DataArray>
      <DataArray type="UInt8" Name="types" format="ascii">
4
4
4
4
4
4
4
4
4
4
4
4
4
4
4
4
4
4
4
4
4
4
4
      </DataArray>
    </Cells>
    <PointData>
      <DataArray type="Float64" NumberOfComponents="3" Name="Displacement" format="ascii">
0 0 0
-0.00225311 0.0285083 0
-0.00531614 0.0779054 0
-0.00944883 0.144805 0
-0.0147703 0.224628 0
-0.0212216 0.310937 0
-0.035652 0.334196 0
-0.0440312 0.311535 0
-0.0360985 0.224299 0
-0.0274989 0.14455 0
-0.0184817 0.0777428 0
-0.00926152 0.0284288 0
0 0 0
      </DataArray> 
    </PointData>
    <CellData>
    </CellData>
  </Piece>
  </UnstructuredGrid>
</VTKFile>
