<?xml version="1.0"?>
<VTKFile type="UnstructuredGrid">
  <UnstructuredGrid>
  <Piece NumberOfPoints="13"  NumberOfCells="23">
    <Points>
      <DataArray type="Float64" NumberOfComponents="3" format="ascii">
0 0 0
2.99856 0.00482428 0
5.9971 0.0100656 0
8.99562 0.0156279 0
11.9941 0.0214096 0
14.9926 0.0270512 0
15.9916 0.527615 0
14.9922 1.0273 0
11.9937 1.02141 0
8.99526 1.01563 0
5.99682 1.01006 0
2.99841 1.00482 0
0 1 0
      </DataArray>
    </Points>
    <Cells>
      <DataArray type="Int32" Name="connectivity" format="ascii">
0 1
1 2
2 3
3 4
4 5
5 6
0 12
0 11
1 11
1 10
2 10
2 9
3 9
3 8
4 8
4 7
5 7
7 6
11 12
11 10
10 9
8 9
7 8
      </DataArray>
      <DataArray type="Int32" Name="offsets" format="ascii">
2
4
6
8
10
12
14
16
18
20
22
24
26
28
30
32
34
36
38
40
42
44
46
      </DataArray>
      <DataArray type="UInt8" Name="types" format="ascii">
4
4
4
4
4
4
4
4
4
4
4
4
4
4
4
4
4
4
4
4
4
4
4
      </DataArray>
    </Cells>
    <PointData>
      <DataArray type="Float64" NumberOfComponents="3" Name="Displacement" format="ascii">
0 0 0
-0.0014427 0.00482428 0
-0.00290191 0.0100656 0
-0.00437848 0.0156279 0
-0.00587291 0.0214096 0
-0.00738448 0.0270512 0
-0.00836897 0.0276155 0
-0.0078229 0.0273014 0
-0.00629079 0.0214075 0
-0.00474145 0.0156259 0
-0.00317574 0.0100637 0
-0.0015948 0.00482258 0
0 0 0
      </DataArray> 
    </PointData>
    <CellData>
    </CellData>
  </Piece>
  </UnstructuredGrid>
</VTKFile>
