<?xml version="1.0"?>
<VTKFile type="UnstructuredGrid">
  <UnstructuredGrid>
  <Piece NumberOfPoints="13"  NumberOfCells="23">
    <Points>
      <DataArray type="Float64" NumberOfComponents="3" format="ascii">
0 0 0
3.0441 0.926046 0
5.20423 3.21491 0
6.43967 6.06562 0
6.96646 9.08268 0
7.09248 12.0957 0
6.6662 13.1364 0
6.09866 12.1815 0
5.99002 9.25418 0
5.52164 6.42206 0
4.4484 3.82939 0
2.62612 1.78509 0
0 1 0
      </DataArray>
    </Points>
    <Cells>
      <DataArray type="Int32" Name="connectivity" format="ascii">
0 1
1 2
2 3
3 4
4 5
5 6
0 12
0 11
1 11
1 10
2 10
2 9
3 9
3 8
4 8
4 7
5 7
7 6
11 12
11 10
10 9
8 9
7 8
      </DataArray>
      <DataArray type="Int32" Name="offsets" format="ascii">
2
4
6
8
10
12
14
16
18
20
22
24
26
28
30
32
34
36
38
40
42
44
46
      </DataArray>
      <DataArray type="UInt8" Name="types" format="ascii">
4
4
4
4
4
4
4
4
4
4
4
4
4
4
4
4
4
4
4
4
4
4
4
      </DataArray>
    </Cells>
    <PointData>
      <DataArray type="Float64" NumberOfComponents="3" Name="Displacement" format="ascii">
0 0 0
0.044103 0.926046 0
-0.795772 3.21491 0
-2.56033 6.06562 0
-5.03354 9.08268 0
-7.90752 12.0957 0
-9.3338 12.6364 0
-8.90134 11.1815 0
-6.00998 8.25418 0
-3.47836 5.42206 0
-1.5516 2.82939 0
-0.373883 0.785088 0
0 0 0
      </DataArray> 
    </PointData>
    <CellData>
    </CellData>
  </Piece>
  </UnstructuredGrid>
</VTKFile>
