<?xml version="1.0"?>
<VTKFile type="UnstructuredGrid">
  <UnstructuredGrid>
  <Piece NumberOfPoints="13"  NumberOfCells="23">
    <Points>
      <DataArray type="Float64" NumberOfComponents="3" format="ascii">
0 0 0
3.02732 0.155697 0
6.02682 0.556879 0
8.98316 1.1657 0
11.8935 1.92768 0
14.768 2.77624 0
15.5937 3.52834 0
14.5002 3.74019 0
11.6444 2.89475 0
8.77358 2.14199 0
5.8753 1.54379 0
2.94777 1.15106 0
0 1 0
      </DataArray>
    </Points>
    <Cells>
      <DataArray type="Int32" Name="connectivity" format="ascii">
0 1
1 2
2 3
3 4
4 5
5 6
0 12
0 11
1 11
1 10
2 10
2 9
3 9
3 8
4 8
4 7
5 7
7 6
11 12
11 10
10 9
8 9
7 8
      </DataArray>
      <DataArray type="Int32" Name="offsets" format="ascii">
2
4
6
8
10
12
14
16
18
20
22
24
26
28
30
32
34
36
38
40
42
44
46
      </DataArray>
      <DataArray type="UInt8" Name="types" format="ascii">
4
4
4
4
4
4
4
4
4
4
4
4
4
4
4
4
4
4
4
4
4
4
4
      </DataArray>
    </Cells>
    <PointData>
      <DataArray type="Float64" NumberOfComponents="3" Name="Displacement" format="ascii">
0 0 0
0.0273226 0.155697 0
0.0268241 0.556879 0
-0.0168364 1.1657 0
-0.106494 1.92768 0
-0.231959 2.77624 0
-0.4063 3.02834 0
-0.499796 2.74019 0
-0.355623 1.89475 0
-0.226418 1.14199 0
-0.124698 0.543785 0
-0.0522256 0.151057 0
0 0 0
      </DataArray> 
    </PointData>
    <CellData>
    </CellData>
  </Piece>
  </UnstructuredGrid>
</VTKFile>
