<?xml version="1.0"?>
<VTKFile type="UnstructuredGrid">
  <UnstructuredGrid>
  <Piece NumberOfPoints="13"  NumberOfCells="23">
    <Points>
      <DataArray type="Float64" NumberOfComponents="3" format="ascii">
0 0 0
3.00161 0.046881 0
6.0008 0.144897 0
8.99652 0.2864 0
11.9884 0.460403 0
14.9768 0.652274 0
15.944 1.20859 0
14.9206 1.65158 0
11.936 1.45877 0
8.95239 1.28519 0
5.96883 1.14419 0
2.98474 1.04659 0
0 1 0
      </DataArray>
    </Points>
    <Cells>
      <DataArray type="Int32" Name="connectivity" format="ascii">
0 1
1 2
2 3
3 4
4 5
5 6
0 12
0 11
1 11
1 10
2 10
2 9
3 9
3 8
4 8
4 7
5 7
7 6
11 12
11 10
10 9
8 9
7 8
      </DataArray>
      <DataArray type="Int32" Name="offsets" format="ascii">
2
4
6
8
10
12
14
16
18
20
22
24
26
28
30
32
34
36
38
40
42
44
46
      </DataArray>
      <DataArray type="UInt8" Name="types" format="ascii">
4
4
4
4
4
4
4
4
4
4
4
4
4
4
4
4
4
4
4
4
4
4
4
      </DataArray>
    </Cells>
    <PointData>
      <DataArray type="Float64" NumberOfComponents="3" Name="Displacement" format="ascii">
0 0 0
0.00161395 0.046881 0
0.000800409 0.144897 0
-0.00347745 0.2864 0
-0.0115991 0.460403 0
-0.0231815 0.652274 0
-0.0559936 0.70859 0
-0.0794199 0.651584 0
-0.0640004 0.458773 0
-0.0476061 0.285193 0
-0.031174 0.144189 0
-0.015261 0.046594 0
0 0 0
      </DataArray> 
    </PointData>
    <CellData>
    </CellData>
  </Piece>
  </UnstructuredGrid>
</VTKFile>
