<?xml version="1.0"?>
<VTKFile type="UnstructuredGrid">
  <UnstructuredGrid>
  <Piece NumberOfPoints="13"  NumberOfCells="23">
    <Points>
      <DataArray type="Float64" NumberOfComponents="3" format="ascii">
0 0 0
3.04884 0.892887 0
5.28533 3.10287 0
6.63334 5.89991 0
7.28987 8.89019 0
7.55035 11.894 0
7.17088 12.9524 0
6.56123 12.0239 0
6.32156 9.10365 0
5.72975 6.29263 0
4.54886 3.74201 0
2.64172 1.76136 0
0 1 0
      </DataArray>
    </Points>
    <Cells>
      <DataArray type="Int32" Name="connectivity" format="ascii">
0 1
1 2
2 3
3 4
4 5
5 6
0 12
0 11
1 11
1 10
2 10
2 9
3 9
3 8
4 8
4 7
5 7
7 6
11 12
11 10
10 9
8 9
7 8
      </DataArray>
      <DataArray type="Int32" Name="offsets" format="ascii">
2
4
6
8
10
12
14
16
18
20
22
24
26
28
30
32
34
36
38
40
42
44
46
      </DataArray>
      <DataArray type="UInt8" Name="types" format="ascii">
4
4
4
4
4
4
4
4
4
4
4
4
4
4
4
4
4
4
4
4
4
4
4
      </DataArray>
    </Cells>
    <PointData>
      <DataArray type="Float64" NumberOfComponents="3" Name="Displacement" format="ascii">
0 0 0
0.0488448 0.892887 0
-0.714671 3.10287 0
-2.36666 5.89991 0
-4.71013 8.89019 0
-7.44965 11.894 0
-8.82912 12.4524 0
-8.43877 11.0239 0
-5.67844 8.10365 0
-3.27025 5.29263 0
-1.45114 2.74201 0
-0.358277 0.761357 0
0 0 0
      </DataArray> 
    </PointData>
    <CellData>
    </CellData>
  </Piece>
  </UnstructuredGrid>
</VTKFile>
