<?xml version="1.0"?>
<VTKFile type="UnstructuredGrid">
  <UnstructuredGrid>
  <Piece NumberOfPoints="13"  NumberOfCells="23">
    <Points>
      <DataArray type="Float64" NumberOfComponents="3" format="ascii">
0 0 0
2.99683 0.0160234 0
5.99343 0.0379847 0
8.98978 0.0647704 0
11.9859 0.0950233 0
14.9816 0.126504 0
15.9764 0.633249 0
14.9753 1.12715 0
11.9798 1.09498 0
8.98464 1.06473 0
5.98964 1.03795 0
2.99477 1.016 0
0 1 0
      </DataArray>
    </Points>
    <Cells>
      <DataArray type="Int32" Name="connectivity" format="ascii">
0 1
1 2
2 3
3 4
4 5
5 6
0 12
0 11
1 11
1 10
2 10
2 9
3 9
3 8
4 8
4 7
5 7
7 6
11 12
11 10
10 9
8 9
7 8
      </DataArray>
      <DataArray type="Int32" Name="offsets" format="ascii">
2
4
6
8
10
12
14
16
18
20
22
24
26
28
30
32
34
36
38
40
42
44
46
      </DataArray>
      <DataArray type="UInt8" Name="types" format="ascii">
4
4
4
4
4
4
4
4
4
4
4
4
4
4
4
4
4
4
4
4
4
4
4
      </DataArray>
    </Cells>
    <PointData>
      <DataArray type="Float64" NumberOfComponents="3" Name="Displacement" format="ascii">
0 0 0
-0.00317396 0.0160234 0
-0.00656544 0.0379847 0
-0.0102156 0.0647704 0
-0.0141468 0.0950233 0
-0.0183517 0.126504 0
-0.0236428 0.133249 0
-0.0247418 0.127151 0
-0.0201632 0.0949767 0
-0.0153564 0.064731 0
-0.0103629 0.0379549 0
-0.00522833 0.0160034 0
0 0 0
      </DataArray> 
    </PointData>
    <CellData>
    </CellData>
  </Piece>
  </UnstructuredGrid>
</VTKFile>
