<?xml version="1.0"?>
<VTKFile type="UnstructuredGrid">
  <UnstructuredGrid>
  <Piece NumberOfPoints="13"  NumberOfCells="23">
    <Points>
      <DataArray type="Float64" NumberOfComponents="3" format="ascii">
0 0 0
2.99711 0.0123519 0
5.99409 0.0279837 0
8.99094 0.0462409 0
11.9876 0.066359 0
14.9842 0.0869143 0
15.9807 0.590711 0
14.9807 1.08747 0
11.9843 1.06634 0
8.9881 1.04622 0
5.99198 1.02797 0
2.99596 1.01234 0
0 1 0
      </DataArray>
    </Points>
    <Cells>
      <DataArray type="Int32" Name="connectivity" format="ascii">
0 1
1 2
2 3
3 4
4 5
5 6
0 12
0 11
1 11
1 10
2 10
2 9
3 9
3 8
4 8
4 7
5 7
7 6
11 12
11 10
10 9
8 9
7 8
      </DataArray>
      <DataArray type="Int32" Name="offsets" format="ascii">
2
4
6
8
10
12
14
16
18
20
22
24
26
28
30
32
34
36
38
40
42
44
46
      </DataArray>
      <DataArray type="UInt8" Name="types" format="ascii">
4
4
4
4
4
4
4
4
4
4
4
4
4
4
4
4
4
4
4
4
4
4
4
      </DataArray>
    </Cells>
    <PointData>
      <DataArray type="Float64" NumberOfComponents="3" Name="Displacement" format="ascii">
0 0 0
-0.00289167 0.0123519 0
-0.00590505 0.0279837 0
-0.00905758 0.0462409 0
-0.012359 0.066359 0
-0.0158054 0.0869143 0
-0.0192896 0.0907108 0
-0.0193114 0.0874669 0
-0.0156711 0.0663379 0
-0.0119007 0.0462223 0
-0.00801785 0.0279686 0
-0.00404332 0.0123404 0
0 0 0
      </DataArray> 
    </PointData>
    <CellData>
    </CellData>
  </Piece>
  </UnstructuredGrid>
</VTKFile>
