<?xml version="1.0"?>
<VTKFile type="UnstructuredGrid">
  <UnstructuredGrid>
  <Piece NumberOfPoints="13"  NumberOfCells="23">
    <Points>
      <DataArray type="Float64" NumberOfComponents="3" format="ascii">
0 0 0
2.99774 0.00835671 0
5.99543 0.0180804 0
8.99306 0.0288771 0
11.9906 0.0404208 0
14.9881 0.0519436 0
15.9862 0.553601 0
14.9867 1.05235 0
11.9893 1.04041 0
8.99187 1.02887 0
5.99454 1.01807 0
2.99725 1.00835 0
0 1 0
      </DataArray>
    </Points>
    <Cells>
      <DataArray type="Int32" Name="connectivity" format="ascii">
0 1
1 2
2 3
3 4
4 5
5 6
0 12
0 11
1 11
1 10
2 10
2 9
3 9
3 8
4 8
4 7
5 7
7 6
11 12
11 10
10 9
8 9
7 8
      </DataArray>
      <DataArray type="Int32" Name="offsets" format="ascii">
2
4
6
8
10
12
14
16
18
20
22
24
26
28
30
32
34
36
38
40
42
44
46
      </DataArray>
      <DataArray type="UInt8" Name="types" format="ascii">
4
4
4
4
4
4
4
4
4
4
4
4
4
4
4
4
4
4
4
4
4
4
4
      </DataArray>
    </Cells>
    <PointData>
      <DataArray type="Float64" NumberOfComponents="3" Name="Displacement" format="ascii">
0 0 0
-0.00225921 0.00835671 0
-0.00457064 0.0180804 0
-0.00693918 0.0288771 0
-0.00936762 0.0404208 0
-0.011854 0.0519436 0
-0.0138338 0.0536006 0
-0.0133029 0.0523513 0
-0.0107424 0.0404134 0
-0.00812632 0.0288703 0
-0.00545959 0.0180743 0
-0.00274841 0.00835159 0
0 0 0
      </DataArray> 
    </PointData>
    <CellData>
    </CellData>
  </Piece>
  </UnstructuredGrid>
</VTKFile>
