<?xml version="1.0"?>
<VTKFile type="UnstructuredGrid">
  <UnstructuredGrid>
  <Piece NumberOfPoints="13"  NumberOfCells="23">
    <Points>
      <DataArray type="Float64" NumberOfComponents="3" format="ascii">
0 0 0
2.99986 0.000438003 0
5.99971 0.000879086 0
8.99957 0.00132248 0
11.9994 0.00176741 0
14.9993 0.00218889 0
15.9992 0.502204 0
14.9993 1.00221 0
11.9994 1.00177 0
8.99956 1.00132 0
5.99971 1.00088 0
2.99985 1.00044 0
0 1 0
      </DataArray>
    </Points>
    <Cells>
      <DataArray type="Int32" Name="connectivity" format="ascii">
0 1
1 2
2 3
3 4
4 5
5 6
0 12
0 11
1 11
1 10
2 10
2 9
3 9
3 8
4 8
4 7
5 7
7 6
11 12
11 10
10 9
8 9
7 8
      </DataArray>
      <DataArray type="Int32" Name="offsets" format="ascii">
2
4
6
8
10
12
14
16
18
20
22
24
26
28
30
32
34
36
38
40
42
44
46
      </DataArray>
      <DataArray type="UInt8" Name="types" format="ascii">
4
4
4
4
4
4
4
4
4
4
4
4
4
4
4
4
4
4
4
4
4
4
4
      </DataArray>
    </Cells>
    <PointData>
      <DataArray type="Float64" NumberOfComponents="3" Name="Displacement" format="ascii">
0 0 0
-0.00014473 0.000438003 0
-0.000289588 0.000879086 0
-0.000434575 0.00132248 0
-0.000579692 0.00176741 0
-0.000724931 0.00218889 0
-0.000800231 0.00220419 0
-0.000728137 0.00221308 0
-0.000582766 0.0017674 0
-0.000437267 0.00132247 0
-0.000291639 0.000879072 0
-0.000145883 0.000437989 0
0 0 0
      </DataArray> 
    </PointData>
    <CellData>
    </CellData>
  </Piece>
  </UnstructuredGrid>
</VTKFile>
