<?xml version="1.0"?>
<VTKFile type="UnstructuredGrid">
  <UnstructuredGrid>
  <Piece NumberOfPoints="13"  NumberOfCells="23">
    <Points>
      <DataArray type="Float64" NumberOfComponents="3" format="ascii">
0 0 0
3.02765 0.182114 0
0.261772 1.45478 0
-2.66965 2.22796 0
-5.62222 2.86772 0
-8.58017 3.43346 0
-9.6611 3.12952 0
-8.76807 2.45325 0
-5.82601 1.88998 0
-2.90915 1.25881 0
-0.0358714 0.504423 0
2.93944 1.1751 0
0 1 0
      </DataArray>
    </Points>
    <Cells>
      <DataArray type="Int32" Name="connectivity" format="ascii">
0 1
1 2
2 3
3 4
4 5
5 6
0 12
0 11
1 11
1 10
2 10
2 9
3 9
3 8
4 8
4 7
5 7
7 6
11 12
11 10
10 9
8 9
7 8
      </DataArray>
      <DataArray type="Int32" Name="offsets" format="ascii">
2
4
6
8
10
12
14
16
18
20
22
24
26
28
30
32
34
36
38
40
42
44
46
      </DataArray>
      <DataArray type="UInt8" Name="types" format="ascii">
4
4
4
4
4
4
4
4
4
4
4
4
4
4
4
4
4
4
4
4
4
4
4
      </DataArray>
    </Cells>
    <PointData>
      <DataArray type="Float64" NumberOfComponents="3" Name="Displacement" format="ascii">
0 0 0
0.0276527 0.182114 0
-5.73823 1.45478 0
-11.6697 2.22796 0
-17.6222 2.86772 0
-23.5802 3.43346 0
-25.6611 2.62952 0
-23.7681 1.45325 0
-17.826 0.889984 0
-11.9092 0.258814 0
-6.03587 -0.495577 0
-0.0605617 0.175097 0
0 0 0
      </DataArray> 
    </PointData>
    <CellData>
    </CellData>
  </Piece>
  </UnstructuredGrid>
</VTKFile>
