<?xml version="1.0"?>
<VTKFile type="UnstructuredGrid">
  <UnstructuredGrid>
  <Piece NumberOfPoints="13"  NumberOfCells="23">
    <Points>
      <DataArray type="Float64" NumberOfComponents="3" format="ascii">
0 0 0
3.05349 0.30867 0
6.00266 1.1203 0
8.79239 2.33642 0
11.4201 3.83238 0
13.9311 5.47665 0
14.5123 6.43247 0
13.4048 6.32667 0
10.9282 4.69954 0
8.37424 3.2405 0
5.69693 2.06736 0
2.89198 1.29015 0
0 1 0
      </DataArray>
    </Points>
    <Cells>
      <DataArray type="Int32" Name="connectivity" format="ascii">
0 1
1 2
2 3
3 4
4 5
5 6
0 12
0 11
1 11
1 10
2 10
2 9
3 9
3 8
4 8
4 7
5 7
7 6
11 12
11 10
10 9
8 9
7 8
      </DataArray>
      <DataArray type="Int32" Name="offsets" format="ascii">
2
4
6
8
10
12
14
16
18
20
22
24
26
28
30
32
34
36
38
40
42
44
46
      </DataArray>
      <DataArray type="UInt8" Name="types" format="ascii">
4
4
4
4
4
4
4
4
4
4
4
4
4
4
4
4
4
4
4
4
4
4
4
      </DataArray>
    </Cells>
    <PointData>
      <DataArray type="Float64" NumberOfComponents="3" Name="Displacement" format="ascii">
0 0 0
0.0534874 0.30867 0
0.00266264 1.1203 0
-0.207614 2.33642 0
-0.579905 3.83238 0
-1.0689 5.47665 0
-1.48773 5.93247 0
-1.5952 5.32667 0
-1.07178 3.69954 0
-0.625756 2.2405 0
-0.303074 1.06736 0
-0.10802 0.290151 0
0 0 0
      </DataArray> 
    </PointData>
    <CellData>
    </CellData>
  </Piece>
  </UnstructuredGrid>
</VTKFile>
