<?xml version="1.0"?>
<VTKFile type="UnstructuredGrid">
  <UnstructuredGrid>
  <Piece NumberOfPoints="13"  NumberOfCells="23">
    <Points>
      <DataArray type="Float64" NumberOfComponents="3" format="ascii">
0 0 0
3.04211 0.939314 0
5.16884 3.2608 0
6.35743 6.13217 0
6.83117 9.15847 0
6.90271 12.1736 0
6.45771 13.2065 0
5.90755 12.2414 0
5.85194 9.31283 0
5.4339 6.4736 0
4.40517 3.86488 0
2.61987 1.79438 0
0 1 0
      </DataArray>
    </Points>
    <Cells>
      <DataArray type="Int32" Name="connectivity" format="ascii">
0 1
1 2
2 3
3 4
4 5
5 6
0 12
0 11
1 11
1 10
2 10
2 9
3 9
3 8
4 8
4 7
5 7
7 6
11 12
11 10
10 9
8 9
7 8
      </DataArray>
      <DataArray type="Int32" Name="offsets" format="ascii">
2
4
6
8
10
12
14
16
18
20
22
24
26
28
30
32
34
36
38
40
42
44
46
      </DataArray>
      <DataArray type="UInt8" Name="types" format="ascii">
4
4
4
4
4
4
4
4
4
4
4
4
4
4
4
4
4
4
4
4
4
4
4
      </DataArray>
    </Cells>
    <PointData>
      <DataArray type="Float64" NumberOfComponents="3" Name="Displacement" format="ascii">
0 0 0
0.0421078 0.939314 0
-0.831156 3.2608 0
-2.64257 6.13217 0
-5.16883 9.15847 0
-8.09729 12.1736 0
-9.54229 12.7065 0
-9.09245 11.2414 0
-6.14806 8.31283 0
-3.5661 5.4736 0
-1.59483 2.86488 0
-0.380126 0.794377 0
0 0 0
      </DataArray> 
    </PointData>
    <CellData>
    </CellData>
  </Piece>
  </UnstructuredGrid>
</VTKFile>
