<?xml version="1.0"?>
<VTKFile type="UnstructuredGrid">
  <UnstructuredGrid>
  <Piece NumberOfPoints="13"  NumberOfCells="23">
    <Points>
      <DataArray type="Float64" NumberOfComponents="3" format="ascii">
0 0 0
3.00594 0.0644232 0
6.00714 0.211193 0
9.00134 0.428272 0
11.9878 0.69802 0
14.9676 0.997409 0
15.9149 1.5872 0
14.8769 1.99414 0
11.9034 1.69403 0
8.93036 1.42535 0
5.95583 1.20953 0
2.97894 1.06379 0
0 1 0
      </DataArray>
    </Points>
    <Cells>
      <DataArray type="Int32" Name="connectivity" format="ascii">
0 1
1 2
2 3
3 4
4 5
5 6
0 12
0 11
1 11
1 10
2 10
2 9
3 9
3 8
4 8
4 7
5 7
7 6
11 12
11 10
10 9
8 9
7 8
      </DataArray>
      <DataArray type="Int32" Name="offsets" format="ascii">
2
4
6
8
10
12
14
16
18
20
22
24
26
28
30
32
34
36
38
40
42
44
46
      </DataArray>
      <DataArray type="UInt8" Name="types" format="ascii">
4
4
4
4
4
4
4
4
4
4
4
4
4
4
4
4
4
4
4
4
4
4
4
      </DataArray>
    </Cells>
    <PointData>
      <DataArray type="Float64" NumberOfComponents="3" Name="Displacement" format="ascii">
0 0 0
0.00593953 0.0644232 0
0.00714134 0.211193 0
0.00133754 0.428272 0
-0.0121788 0.69802 0
-0.0323605 0.997409 0
-0.0850916 1.0872 0
-0.123072 0.994139 0
-0.0965977 0.694028 0
-0.0696398 0.425355 0
-0.0441728 0.209531 0
-0.0210601 0.0637903 0
0 0 0
      </DataArray> 
    </PointData>
    <CellData>
    </CellData>
  </Piece>
  </UnstructuredGrid>
</VTKFile>
