<?xml version="1.0"?>
<VTKFile type="UnstructuredGrid">
  <UnstructuredGrid>
  <Piece NumberOfPoints="13"  NumberOfCells="23">
    <Points>
      <DataArray type="Float64" NumberOfComponents="3" format="ascii">
0 0 0
2.99842 0.0323836 0
5.99577 0.0915671 0
8.99166 0.173318 0
11.9859 0.271802 0
14.9787 0.378968 0
15.9607 0.908729 0
14.9493 1.37942 0
11.9585 1.27129 0
8.96851 1.17293 0
5.97892 1.09133 0
2.98948 1.03227 0
0 1 0
      </DataArray>
    </Points>
    <Cells>
      <DataArray type="Int32" Name="connectivity" format="ascii">
0 1
1 2
2 3
3 4
4 5
5 6
0 12
0 11
1 11
1 10
2 10
2 9
3 9
3 8
4 8
4 7
5 7
7 6
11 12
11 10
10 9
8 9
7 8
      </DataArray>
      <DataArray type="Int32" Name="offsets" format="ascii">
2
4
6
8
10
12
14
16
18
20
22
24
26
28
30
32
34
36
38
40
42
44
46
      </DataArray>
      <DataArray type="UInt8" Name="types" format="ascii">
4
4
4
4
4
4
4
4
4
4
4
4
4
4
4
4
4
4
4
4
4
4
4
      </DataArray>
    </Cells>
    <PointData>
      <DataArray type="Float64" NumberOfComponents="3" Name="Displacement" format="ascii">
0 0 0
-0.00157516 0.0323836 0
-0.00422979 0.0915671 0
-0.00834209 0.173318 0
-0.0140766 0.271802 0
-0.0213352 0.378968 0
-0.0393086 0.408729 0
-0.0506701 0.379417 0
-0.0414753 0.271294 0
-0.0314925 0.172931 0
-0.0210795 0.0913273 0
-0.0105202 0.0322732 0
0 0 0
      </DataArray> 
    </PointData>
    <CellData>
    </CellData>
  </Piece>
  </UnstructuredGrid>
</VTKFile>
