<?xml version="1.0"?>
<VTKFile type="UnstructuredGrid">
  <UnstructuredGrid>
  <Piece NumberOfPoints="13"  NumberOfCells="23">
    <Points>
      <DataArray type="Float64" NumberOfComponents="3" format="ascii">
0 0 0
2.99876 0.00408259 0
5.9975 0.00845827 0
8.99623 0.0130587 0
11.995 0.0178119 0
14.9937 0.0224272 0
15.9929 0.522842 0
14.9934 1.02264 0
11.9947 1.01781 0
8.99598 1.01306 0
5.99731 1.00846 0
2.99865 1.00408 0
0 1 0
      </DataArray>
    </Points>
    <Cells>
      <DataArray type="Int32" Name="connectivity" format="ascii">
0 1
1 2
2 3
3 4
4 5
5 6
0 12
0 11
1 11
1 10
2 10
2 9
3 9
3 8
4 8
4 7
5 7
7 6
11 12
11 10
10 9
8 9
7 8
      </DataArray>
      <DataArray type="Int32" Name="offsets" format="ascii">
2
4
6
8
10
12
14
16
18
20
22
24
26
28
30
32
34
36
38
40
42
44
46
      </DataArray>
      <DataArray type="UInt8" Name="types" format="ascii">
4
4
4
4
4
4
4
4
4
4
4
4
4
4
4
4
4
4
4
4
4
4
4
      </DataArray>
    </Cells>
    <PointData>
      <DataArray type="Float64" NumberOfComponents="3" Name="Displacement" format="ascii">
0 0 0
-0.00124385 0.00408259 0
-0.0024994 0.00845827 0
-0.00376716 0.0130587 0
-0.00504743 0.0178119 0
-0.00633967 0.0224272 0
-0.00714801 0.0228424 0
-0.00664729 0.0226414 0
-0.00534093 0.0178105 0
-0.00402243 0.0130573 0
-0.0026923 0.00845696 0
-0.00135121 0.00408137 0
0 0 0
      </DataArray> 
    </PointData>
    <CellData>
    </CellData>
  </Piece>
  </UnstructuredGrid>
</VTKFile>
