<?xml version="1.0"?>
<VTKFile type="UnstructuredGrid">
  <UnstructuredGrid>
  <Piece NumberOfPoints="13"  NumberOfCells="23">
    <Points>
      <DataArray type="Float64" NumberOfComponents="3" format="ascii">
0 0 0
2.9981 0.0306316 0
5.99525 0.0853424 0
8.99113 0.160288 0
11.9856 0.250211 0
14.9787 0.347801 0
15.9624 0.874572 0
14.9524 1.34833 0
11.961 1.24979 0
8.97033 1.15996 0
5.9801 1.08514 0
2.99005 1.03054 0
0 1 0
      </DataArray>
    </Points>
    <Cells>
      <DataArray type="Int32" Name="connectivity" format="ascii">
0 1
1 2
2 3
3 4
4 5
5 6
0 12
0 11
1 11
1 10
2 10
2 9
3 9
3 8
4 8
4 7
5 7
7 6
11 12
11 10
10 9
8 9
7 8
      </DataArray>
      <DataArray type="Int32" Name="offsets" format="ascii">
2
4
6
8
10
12
14
16
18
20
22
24
26
28
30
32
34
36
38
40
42
44
46
      </DataArray>
      <DataArray type="UInt8" Name="types" format="ascii">
4
4
4
4
4
4
4
4
4
4
4
4
4
4
4
4
4
4
4
4
4
4
4
      </DataArray>
    </Cells>
    <PointData>
      <DataArray type="Float64" NumberOfComponents="3" Name="Displacement" format="ascii">
0 0 0
-0.00189619 0.0306316 0
-0.00474507 0.0853424 0
-0.00886823 0.160288 0
-0.0144089 0.250211 0
-0.0212885 0.347801 0
-0.0376301 0.374572 0
-0.0476189 0.348325 0
-0.0390131 0.249789 0
-0.0296713 0.159965 0
-0.0198998 0.0851399 0
-0.00995066 0.030536 0
0 0 0
      </DataArray> 
    </PointData>
    <CellData>
    </CellData>
  </Piece>
  </UnstructuredGrid>
</VTKFile>
