<?xml version="1.0"?>
<VTKFile type="UnstructuredGrid">
  <UnstructuredGrid>
  <Piece NumberOfPoints="13"  NumberOfCells="23">
    <Points>
      <DataArray type="Float64" NumberOfComponents="3" format="ascii">
0 0 0
2.9968 0.0170358 0
5.99335 0.0408988 0
8.9896 0.0703292 0
11.9855 0.103774 0
14.9811 0.13873 0
15.9753 0.64646 0
14.9738 1.1394 0
11.9786 1.10372 0
8.98369 1.07028 0
5.98899 1.04086 0
2.99445 1.01701 0
0 1 0
      </DataArray>
    </Points>
    <Cells>
      <DataArray type="Int32" Name="connectivity" format="ascii">
0 1
1 2
2 3
3 4
4 5
5 6
0 12
0 11
1 11
1 10
2 10
2 9
3 9
3 8
4 8
4 7
5 7
7 6
11 12
11 10
10 9
8 9
7 8
      </DataArray>
      <DataArray type="Int32" Name="offsets" format="ascii">
2
4
6
8
10
12
14
16
18
20
22
24
26
28
30
32
34
36
38
40
42
44
46
      </DataArray>
      <DataArray type="UInt8" Name="types" format="ascii">
4
4
4
4
4
4
4
4
4
4
4
4
4
4
4
4
4
4
4
4
4
4
4
      </DataArray>
    </Cells>
    <PointData>
      <DataArray type="Float64" NumberOfComponents="3" Name="Displacement" format="ascii">
0 0 0
-0.00320102 0.0170358 0
-0.00665191 0.0408988 0
-0.0104031 0.0703292 0
-0.0144815 0.103774 0
-0.0188785 0.13873 0
-0.0247441 0.14646 0
-0.0262382 0.139396 0
-0.0214051 0.103717 0
-0.0163125 0.0702817 0
-0.0110107 0.0408636 0
-0.00555473 0.0170129 0
0 0 0
      </DataArray> 
    </PointData>
    <CellData>
    </CellData>
  </Piece>
  </UnstructuredGrid>
</VTKFile>
