<?xml version="1.0"?>
<VTKFile type="UnstructuredGrid">
  <UnstructuredGrid>
  <Piece NumberOfPoints="13"  NumberOfCells="23">
    <Points>
      <DataArray type="Float64" NumberOfComponents="3" format="ascii">
0 0 0
3.02511 0.145396 0
6.0259 0.518167 0
8.98899 1.08367 0
11.9118 1.79175 0
14.803 2.58061 0
15.6435 3.31583 0
14.5544 3.54975 0
11.6806 2.76338 0
8.79461 2.06324 0
5.88542 1.50687 0
2.95137 1.14138 0
0 1 0
      </DataArray>
    </Points>
    <Cells>
      <DataArray type="Int32" Name="connectivity" format="ascii">
0 1
1 2
2 3
3 4
4 5
5 6
0 12
0 11
1 11
1 10
2 10
2 9
3 9
3 8
4 8
4 7
5 7
7 6
11 12
11 10
10 9
8 9
7 8
      </DataArray>
      <DataArray type="Int32" Name="offsets" format="ascii">
2
4
6
8
10
12
14
16
18
20
22
24
26
28
30
32
34
36
38
40
42
44
46
      </DataArray>
      <DataArray type="UInt8" Name="types" format="ascii">
4
4
4
4
4
4
4
4
4
4
4
4
4
4
4
4
4
4
4
4
4
4
4
      </DataArray>
    </Cells>
    <PointData>
      <DataArray type="Float64" NumberOfComponents="3" Name="Displacement" format="ascii">
0 0 0
0.0251127 0.145396 0
0.0258982 0.518167 0
-0.0110098 1.08367 0
-0.0882144 1.79175 0
-0.197023 2.58061 0
-0.356464 2.81583 0
-0.44556 2.54975 0
-0.319361 1.76338 0
-0.205391 1.06324 0
-0.11458 0.506873 0
-0.0486273 0.141383 0
0 0 0
      </DataArray> 
    </PointData>
    <CellData>
    </CellData>
  </Piece>
  </UnstructuredGrid>
</VTKFile>
