<?xml version="1.0"?>
<VTKFile type="UnstructuredGrid">
  <UnstructuredGrid>
  <Piece NumberOfPoints="13"  NumberOfCells="23">
    <Points>
      <DataArray type="Float64" NumberOfComponents="3" format="ascii">
0 0 0
2.99711 0.0236622 0
5.99368 0.0615015 0
8.98958 0.111116 0
11.9847 0.169362 0
14.9792 0.231649 0
15.9688 0.747505 0
14.9638 1.23234 0
11.9703 1.16919 0
8.97733 1.11098 0
5.98471 1.06141 0
2.99231 1.02361 0
0 1 0
      </DataArray>
    </Points>
    <Cells>
      <DataArray type="Int32" Name="connectivity" format="ascii">
0 1
1 2
2 3
3 4
4 5
5 6
0 12
0 11
1 11
1 10
2 10
2 9
3 9
3 8
4 8
4 7
5 7
7 6
11 12
11 10
10 9
8 9
7 8
      </DataArray>
      <DataArray type="Int32" Name="offsets" format="ascii">
2
4
6
8
10
12
14
16
18
20
22
24
26
28
30
32
34
36
38
40
42
44
46
      </DataArray>
      <DataArray type="UInt8" Name="types" format="ascii">
4
4
4
4
4
4
4
4
4
4
4
4
4
4
4
4
4
4
4
4
4
4
4
      </DataArray>
    </Cells>
    <PointData>
      <DataArray type="Float64" NumberOfComponents="3" Name="Displacement" format="ascii">
0 0 0
-0.00289378 0.0236622 0
-0.00631706 0.0615015 0
-0.0104161 0.111116 0
-0.0152625 0.169362 0
-0.0208287 0.231649 0
-0.0312282 0.247505 0
-0.0362446 0.232341 0
-0.0297055 0.169188 0
-0.0226729 0.110979 0
-0.0152899 0.0614095 0
-0.00769276 0.0236124 0
0 0 0
      </DataArray> 
    </PointData>
    <CellData>
    </CellData>
  </Piece>
  </UnstructuredGrid>
</VTKFile>
