<?xml version="1.0"?>
<VTKFile type="UnstructuredGrid">
  <UnstructuredGrid>
  <Piece NumberOfPoints="13"  NumberOfCells="23">
    <Points>
      <DataArray type="Float64" NumberOfComponents="3" format="ascii">
0 0 0
2.99705 0.0128807 0
5.99397 0.0293693 0
8.99073 0.0487526 0
11.9873 0.0701922 0
14.9838 0.0921597 0
15.98 0.596321 0
14.9799 1.09273 0
11.9837 1.07017 0
8.9876 1.04873 0
5.99164 1.02935 0
2.99579 1.01287 0
0 1 0
      </DataArray>
    </Points>
    <Cells>
      <DataArray type="Int32" Name="connectivity" format="ascii">
0 1
1 2
2 3
3 4
4 5
5 6
0 12
0 11
1 11
1 10
2 10
2 9
3 9
3 8
4 8
4 7
5 7
7 6
11 12
11 10
10 9
8 9
7 8
      </DataArray>
      <DataArray type="Int32" Name="offsets" format="ascii">
2
4
6
8
10
12
14
16
18
20
22
24
26
28
30
32
34
36
38
40
42
44
46
      </DataArray>
      <DataArray type="UInt8" Name="types" format="ascii">
4
4
4
4
4
4
4
4
4
4
4
4
4
4
4
4
4
4
4
4
4
4
4
      </DataArray>
    </Cells>
    <PointData>
      <DataArray type="Float64" NumberOfComponents="3" Name="Displacement" format="ascii">
0 0 0
-0.00295028 0.0128807 0
-0.00603409 0.0293693 0
-0.00927143 0.0487526 0
-0.0126735 0.0701922 0
-0.0162358 0.0921597 0
-0.0199541 0.0963209 0
-0.0200965 0.0927285 0
-0.0163186 0.0701684 0
-0.0123982 0.0487317 0
-0.00835554 0.0293525 0
-0.0042142 0.0128682 0
0 0 0
      </DataArray> 
    </PointData>
    <CellData>
    </CellData>
  </Piece>
  </UnstructuredGrid>
</VTKFile>
