<?xml version="1.0"?>
<VTKFile type="UnstructuredGrid">
  <UnstructuredGrid>
  <Piece NumberOfPoints="13"  NumberOfCells="23">
    <Points>
      <DataArray type="Float64" NumberOfComponents="3" format="ascii">
0 0 0
2.99685 0.0153848 0
5.99351 0.0361811 0
8.98993 0.0613635 0
11.9861 0.0896912 0
14.982 0.119082 0
15.9771 0.625244 0
14.9762 1.11972 0
11.9806 1.08965 0
8.98525 1.06133 0
5.99005 1.03615 0
2.99498 1.01537 0
0 1 0
      </DataArray>
    </Points>
    <Cells>
      <DataArray type="Int32" Name="connectivity" format="ascii">
0 1
1 2
2 3
3 4
4 5
5 6
0 12
0 11
1 11
1 10
2 10
2 9
3 9
3 8
4 8
4 7
5 7
7 6
11 12
11 10
10 9
8 9
7 8
      </DataArray>
      <DataArray type="Int32" Name="offsets" format="ascii">
2
4
6
8
10
12
14
16
18
20
22
24
26
28
30
32
34
36
38
40
42
44
46
      </DataArray>
      <DataArray type="UInt8" Name="types" format="ascii">
4
4
4
4
4
4
4
4
4
4
4
4
4
4
4
4
4
4
4
4
4
4
4
      </DataArray>
    </Cells>
    <PointData>
      <DataArray type="Float64" NumberOfComponents="3" Name="Displacement" format="ascii">
0 0 0
-0.00314574 0.0153848 0
-0.00648995 0.0361811 0
-0.0100686 0.0613635 0
-0.0139014 0.0896912 0
-0.0179817 0.119082 0
-0.0229276 0.125244 0
-0.0237989 0.119716 0
-0.0193813 0.0896504 0
-0.0147545 0.0613286 0
-0.00995468 0.0361544 0
-0.0050224 0.0153665 0
0 0 0
      </DataArray> 
    </PointData>
    <CellData>
    </CellData>
  </Piece>
  </UnstructuredGrid>
</VTKFile>
