<?xml version="1.0"?>
<VTKFile type="UnstructuredGrid">
  <UnstructuredGrid>
  <Piece NumberOfPoints="13"  NumberOfCells="23">
    <Points>
      <DataArray type="Float64" NumberOfComponents="3" format="ascii">
0 0 0
2.99766 0.0279597 0
5.99455 0.0760053 0
8.99041 0.140867 0
11.9851 0.218136 0
14.9788 0.301596 0
15.9649 0.82397 0
14.9569 1.30221 0
11.9646 1.21783 0
8.97306 1.14063 0
5.98188 1.07585 0
2.99092 1.02788 0
0 1 0
      </DataArray>
    </Points>
    <Cells>
      <DataArray type="Int32" Name="connectivity" format="ascii">
0 1
1 2
2 3
3 4
4 5
5 6
0 12
0 11
1 11
1 10
2 10
2 9
3 9
3 8
4 8
4 7
5 7
7 6
11 12
11 10
10 9
8 9
7 8
      </DataArray>
      <DataArray type="Int32" Name="offsets" format="ascii">
2
4
6
8
10
12
14
16
18
20
22
24
26
28
30
32
34
36
38
40
42
44
46
      </DataArray>
      <DataArray type="UInt8" Name="types" format="ascii">
4
4
4
4
4
4
4
4
4
4
4
4
4
4
4
4
4
4
4
4
4
4
4
      </DataArray>
    </Cells>
    <PointData>
      <DataArray type="Float64" NumberOfComponents="3" Name="Displacement" format="ascii">
0 0 0
-0.00233877 0.0279597 0
-0.00545251 0.0760053 0
-0.0095862 0.140867 0
-0.014853 0.218136 0
-0.0211985 0.301596 0
-0.035148 0.32397 0
-0.0431227 0.302209 0
-0.0353572 0.217828 0
-0.0269434 0.140628 0
-0.0181172 0.0758521 0
-0.00908363 0.027884 0
0 0 0
      </DataArray> 
    </PointData>
    <CellData>
    </CellData>
  </Piece>
  </UnstructuredGrid>
</VTKFile>
