<?xml version="1.0"?>
<VTKFile type="UnstructuredGrid">
  <UnstructuredGrid>
  <Piece NumberOfPoints="13"  NumberOfCells="23">
    <Points>
      <DataArray type="Float64" NumberOfComponents="3" format="ascii">
0 0 0
2.9968 0.0171527 0
5.99334 0.0412398 0
8.98958 0.0709837 0
11.9855 0.104808 0
14.9811 0.140179 0
15.9751 0.648027 0
14.9736 1.14085 0
11.9785 1.10475 0
8.98358 1.07094 0
5.98891 1.0412 0
2.99441 1.01713 0
0 1 0
      </DataArray>
    </Points>
    <Cells>
      <DataArray type="Int32" Name="connectivity" format="ascii">
0 1
1 2
2 3
3 4
4 5
5 6
0 12
0 11
1 11
1 10
2 10
2 9
3 9
3 8
4 8
4 7
5 7
7 6
11 12
11 10
10 9
8 9
7 8
      </DataArray>
      <DataArray type="Int32" Name="offsets" format="ascii">
2
4
6
8
10
12
14
16
18
20
22
24
26
28
30
32
34
36
38
40
42
44
46
      </DataArray>
      <DataArray type="UInt8" Name="types" format="ascii">
4
4
4
4
4
4
4
4
4
4
4
4
4
4
4
4
4
4
4
4
4
4
4
      </DataArray>
    </Cells>
    <PointData>
      <DataArray type="Float64" NumberOfComponents="3" Name="Displacement" format="ascii">
0 0 0
-0.00320277 0.0171527 0
-0.00665932 0.0412398 0
-0.0104212 0.0709837 0
-0.014516 0.104808 0
-0.0189348 0.140179 0
-0.0248688 0.148027 0
-0.0264113 0.140846 0
-0.0215488 0.10475 0
-0.0164231 0.0709353 0
-0.0110856 0.0412039 0
-0.00559244 0.0171295 0
0 0 0
      </DataArray> 
    </PointData>
    <CellData>
    </CellData>
  </Piece>
  </UnstructuredGrid>
</VTKFile>
