<?xml version="1.0"?>
<VTKFile type="UnstructuredGrid">
  <UnstructuredGrid>
  <Piece NumberOfPoints="13"  NumberOfCells="23">
    <Points>
      <DataArray type="Float64" NumberOfComponents="3" format="ascii">
0 0 0
2.99779 0.0287916 0
5.99476 0.0788899 0
8.99062 0.146849 0
11.9853 0.228 0
14.9788 0.315791 0
15.9641 0.83951 0
14.9555 1.31638 0
11.9635 1.22766 0
8.97221 1.14659 0
5.98133 1.07872 0
2.99065 1.02871 0
0 1 0
      </DataArray>
    </Points>
    <Cells>
      <DataArray type="Int32" Name="connectivity" format="ascii">
0 1
1 2
2 3
3 4
4 5
5 6
0 12
0 11
1 11
1 10
2 10
2 9
3 9
3 8
4 8
4 7
5 7
7 6
11 12
11 10
10 9
8 9
7 8
      </DataArray>
      <DataArray type="Int32" Name="offsets" format="ascii">
2
4
6
8
10
12
14
16
18
20
22
24
26
28
30
32
34
36
38
40
42
44
46
      </DataArray>
      <DataArray type="UInt8" Name="types" format="ascii">
4
4
4
4
4
4
4
4
4
4
4
4
4
4
4
4
4
4
4
4
4
4
4
      </DataArray>
    </Cells>
    <PointData>
      <DataArray type="Float64" NumberOfComponents="3" Name="Displacement" format="ascii">
0 0 0
-0.00220778 0.0287916 0
-0.00524382 0.0788899 0
-0.0093757 0.146849 0
-0.0147256 0.228 0
-0.0212323 0.315791 0
-0.0359131 0.33951 0
-0.0445031 0.31638 0
-0.036483 0.227659 0
-0.0277865 0.146585 0
-0.0186701 0.0787224 0
-0.00935339 0.02871 0
0 0 0
      </DataArray> 
    </PointData>
    <CellData>
    </CellData>
  </Piece>
  </UnstructuredGrid>
</VTKFile>
