<?xml version="1.0"?>
<VTKFile type="UnstructuredGrid">
  <UnstructuredGrid>
  <Piece NumberOfPoints="13"  NumberOfCells="23">
    <Points>
      <DataArray type="Float64" NumberOfComponents="3" format="ascii">
0 0 0
2.99679 0.0181248 0
5.9933 0.0441078 0
8.98946 0.0765218 0
11.9852 0.113588 0
14.9806 0.152504 0
15.9741 0.661375 0
14.9721 1.15319 0
11.9773 1.11352 0
8.98266 1.07646 0
5.98829 1.04407 0
2.99409 1.0181 0
0 1 0
      </DataArray>
    </Points>
    <Cells>
      <DataArray type="Int32" Name="connectivity" format="ascii">
0 1
1 2
2 3
3 4
4 5
5 6
0 12
0 11
1 11
1 10
2 10
2 9
3 9
3 8
4 8
4 7
5 7
7 6
11 12
11 10
10 9
8 9
7 8
      </DataArray>
      <DataArray type="Int32" Name="offsets" format="ascii">
2
4
6
8
10
12
14
16
18
20
22
24
26
28
30
32
34
36
38
40
42
44
46
      </DataArray>
      <DataArray type="UInt8" Name="types" format="ascii">
4
4
4
4
4
4
4
4
4
4
4
4
4
4
4
4
4
4
4
4
4
4
4
      </DataArray>
    </Cells>
    <PointData>
      <DataArray type="Float64" NumberOfComponents="3" Name="Displacement" format="ascii">
0 0 0
-0.00320648 0.0181248 0
-0.00670064 0.0441078 0
-0.0105443 0.0765218 0
-0.0147701 0.113588 0
-0.0193675 0.152504 0
-0.0258876 0.161375 0
-0.0278526 0.153186 0
-0.022746 0.113518 0
-0.0173442 0.0764642 0
-0.0117089 0.0440658 0
-0.00590584 0.0180985 0
0 0 0
      </DataArray> 
    </PointData>
    <CellData>
    </CellData>
  </Piece>
  </UnstructuredGrid>
</VTKFile>
