<?xml version="1.0"?>
<VTKFile type="UnstructuredGrid">
  <UnstructuredGrid>
  <Piece NumberOfPoints="13"  NumberOfCells="23">
    <Points>
      <DataArray type="Float64" NumberOfComponents="3" format="ascii">
0 0 0
2.99749 0.00968116 0
5.99492 0.021257 0
8.99226 0.0343302 0
11.9895 0.0484524 0
14.9867 0.0626632 0
15.9843 0.564914 0
14.9847 1.06312 0
11.9876 1.04844 0
8.99062 1.03432 0
5.99369 1.02125 0
2.99682 1.00967 0
0 1 0
      </DataArray>
    </Points>
    <Cells>
      <DataArray type="Int32" Name="connectivity" format="ascii">
0 1
1 2
2 3
3 4
4 5
5 6
0 12
0 11
1 11
1 10
2 10
2 9
3 9
3 8
4 8
4 7
5 7
7 6
11 12
11 10
10 9
8 9
7 8
      </DataArray>
      <DataArray type="Int32" Name="offsets" format="ascii">
2
4
6
8
10
12
14
16
18
20
22
24
26
28
30
32
34
36
38
40
42
44
46
      </DataArray>
      <DataArray type="UInt8" Name="types" format="ascii">
4
4
4
4
4
4
4
4
4
4
4
4
4
4
4
4
4
4
4
4
4
4
4
      </DataArray>
    </Cells>
    <PointData>
      <DataArray type="Float64" NumberOfComponents="3" Name="Displacement" format="ascii">
0 0 0
-0.00250506 0.00968116 0
-0.0050817 0.021257 0
-0.00773777 0.0343302 0
-0.0104778 0.0484524 0
-0.0132991 0.0626632 0
-0.0157286 0.0649139 0
-0.0153131 0.0631232 0
-0.0123858 0.0484416 0
-0.00938202 0.0343204 0
-0.00630969 0.0212485 0
-0.00317861 0.00967426 0
0 0 0
      </DataArray> 
    </PointData>
    <CellData>
    </CellData>
  </Piece>
  </UnstructuredGrid>
</VTKFile>
