<?xml version="1.0"?>
<VTKFile type="UnstructuredGrid">
  <UnstructuredGrid>
  <Piece NumberOfPoints="13"  NumberOfCells="23">
    <Points>
      <DataArray type="Float64" NumberOfComponents="3" format="ascii">
0 0 0
2.99906 0.00300162 0
5.99812 0.00615743 0
8.99717 0.00943072 0
11.9962 0.0127834 0
14.9952 0.0160152 0
15.9947 0.516257 0
14.9951 1.01618 0
11.9961 1.01278 0
8.99703 1.00943 0
5.99802 1.00616 0
2.999 1.003 0
0 1 0
      </DataArray>
    </Points>
    <Cells>
      <DataArray type="Int32" Name="connectivity" format="ascii">
0 1
1 2
2 3
3 4
4 5
5 6
0 12
0 11
1 11
1 10
2 10
2 9
3 9
3 8
4 8
4 7
5 7
7 6
11 12
11 10
10 9
8 9
7 8
      </DataArray>
      <DataArray type="Int32" Name="offsets" format="ascii">
2
4
6
8
10
12
14
16
18
20
22
24
26
28
30
32
34
36
38
40
42
44
46
      </DataArray>
      <DataArray type="UInt8" Name="types" format="ascii">
4
4
4
4
4
4
4
4
4
4
4
4
4
4
4
4
4
4
4
4
4
4
4
      </DataArray>
    </Cells>
    <PointData>
      <DataArray type="Float64" NumberOfComponents="3" Name="Displacement" format="ascii">
0 0 0
-0.000938389 0.00300162 0
-0.00188301 0.00615743 0
-0.00283407 0.00943072 0
-0.00379167 0.0127834 0
-0.00475551 0.0160152 0
-0.00532471 0.0162568 0
-0.00491693 0.0161752 0
-0.00394591 0.0127827 0
-0.00296847 0.00943 0
-0.00198482 0.00615674 0
-0.000995222 0.00300096 0
0 0 0
      </DataArray> 
    </PointData>
    <CellData>
    </CellData>
  </Piece>
  </UnstructuredGrid>
</VTKFile>
