<?xml version="1.0"?>
<VTKFile type="UnstructuredGrid">
  <UnstructuredGrid>
  <Piece NumberOfPoints="13"  NumberOfCells="23">
    <Points>
      <DataArray type="Float64" NumberOfComponents="3" format="ascii">
0 0 0
2.9992 0.00253225 0
5.9984 0.00517295 0
8.99759 0.00789605 0
11.9968 0.0106747 0
14.996 0.0133446 0
15.9955 0.513526 0
14.9958 1.01348 0
11.9967 1.01067 0
8.99749 1.0079 0
5.99832 1.00517 0
2.99916 1.00253 0
0 1 0
      </DataArray>
    </Points>
    <Cells>
      <DataArray type="Int32" Name="connectivity" format="ascii">
0 1
1 2
2 3
3 4
4 5
5 6
0 12
0 11
1 11
1 10
2 10
2 9
3 9
3 8
4 8
4 7
5 7
7 6
11 12
11 10
10 9
8 9
7 8
      </DataArray>
      <DataArray type="Int32" Name="offsets" format="ascii">
2
4
6
8
10
12
14
16
18
20
22
24
26
28
30
32
34
36
38
40
42
44
46
      </DataArray>
      <DataArray type="UInt8" Name="types" format="ascii">
4
4
4
4
4
4
4
4
4
4
4
4
4
4
4
4
4
4
4
4
4
4
4
      </DataArray>
    </Cells>
    <PointData>
      <DataArray type="Float64" NumberOfComponents="3" Name="Displacement" format="ascii">
0 0 0
-0.00080018 0.00253225 0
-0.00160477 0.00517295 0
-0.00241389 0.00789605 0
-0.00322759 0.0106747 0
-0.00404568 0.0133446 0
-0.00451711 0.0135261 0
-0.0041591 0.0134806 0
-0.00333604 0.0106742 0
-0.00250846 0.00789555 0
-0.00167649 0.00517246 0
-0.000840266 0.00253178 0
0 0 0
      </DataArray> 
    </PointData>
    <CellData>
    </CellData>
  </Piece>
  </UnstructuredGrid>
</VTKFile>
