<?xml version="1.0"?>
<VTKFile type="UnstructuredGrid">
  <UnstructuredGrid>
  <Piece NumberOfPoints="13"  NumberOfCells="23">
    <Points>
      <DataArray type="Float64" NumberOfComponents="3" format="ascii">
0 0 0
2.99682 0.0161325 0
5.99342 0.0382955 0
8.98976 0.0653602 0
11.9858 0.0959489 0
14.9816 0.127794 0
15.9762 0.634642 0
14.9751 1.12844 0
11.9797 1.0959 0
8.98454 1.06532 0
5.98957 1.03827 0
2.99474 1.01611 0
0 1 0
      </DataArray>
    </Points>
    <Cells>
      <DataArray type="Int32" Name="connectivity" format="ascii">
0 1
1 2
2 3
3 4
4 5
5 6
0 12
0 11
1 11
1 10
2 10
2 9
3 9
3 8
4 8
4 7
5 7
7 6
11 12
11 10
10 9
8 9
7 8
      </DataArray>
      <DataArray type="Int32" Name="offsets" format="ascii">
2
4
6
8
10
12
14
16
18
20
22
24
26
28
30
32
34
36
38
40
42
44
46
      </DataArray>
      <DataArray type="UInt8" Name="types" format="ascii">
4
4
4
4
4
4
4
4
4
4
4
4
4
4
4
4
4
4
4
4
4
4
4
      </DataArray>
    </Cells>
    <PointData>
      <DataArray type="Float64" NumberOfComponents="3" Name="Displacement" format="ascii">
0 0 0
-0.00317791 0.0161325 0
-0.00657671 0.0382955 0
-0.0102385 0.0653602 0
-0.0141861 0.0959489 0
-0.0184119 0.127794 0
-0.0237634 0.134642 0
-0.024903 0.128444 0
-0.0202969 0.0959013 0
-0.0154594 0.0653201 0
-0.0104327 0.0382652 0
-0.00526351 0.0161122 0
0 0 0
      </DataArray> 
    </PointData>
    <CellData>
    </CellData>
  </Piece>
  </UnstructuredGrid>
</VTKFile>
