<?xml version="1.0"?>
<VTKFile type="UnstructuredGrid">
  <UnstructuredGrid>
  <Piece NumberOfPoints="13"  NumberOfCells="23">
    <Points>
      <DataArray type="Float64" NumberOfComponents="3" format="ascii">
0 0 0
2.9968 0.0168047 0
5.99336 0.0402277 0
8.98963 0.0690432 0
11.9856 0.101744 0
14.9812 0.13589 0
15.9755 0.643388 0
14.9741 1.13655 0
11.9789 1.10169 0
8.98391 1.069 0
5.98914 1.04019 0
2.99452 1.01678 0
0 1 0
      </DataArray>
    </Points>
    <Cells>
      <DataArray type="Int32" Name="connectivity" format="ascii">
0 1
1 2
2 3
3 4
4 5
5 6
0 12
0 11
1 11
1 10
2 10
2 9
3 9
3 8
4 8
4 7
5 7
7 6
11 12
11 10
10 9
8 9
7 8
      </DataArray>
      <DataArray type="Int32" Name="offsets" format="ascii">
2
4
6
8
10
12
14
16
18
20
22
24
26
28
30
32
34
36
38
40
42
44
46
      </DataArray>
      <DataArray type="UInt8" Name="types" format="ascii">
4
4
4
4
4
4
4
4
4
4
4
4
4
4
4
4
4
4
4
4
4
4
4
      </DataArray>
    </Cells>
    <PointData>
      <DataArray type="Float64" NumberOfComponents="3" Name="Displacement" format="ascii">
0 0 0
-0.00319673 0.0168047 0
-0.00663572 0.0402277 0
-0.0103652 0.0690432 0
-0.0144109 0.101744 0
-0.0187645 0.13589 0
-0.024496 0.143388 0
-0.0258963 0.136551 0
-0.0211213 0.10169 0
-0.016094 0.0689977 0
-0.0108627 0.0401938 0
-0.00548022 0.0167824 0
0 0 0
      </DataArray> 
    </PointData>
    <CellData>
    </CellData>
  </Piece>
  </UnstructuredGrid>
</VTKFile>
