<?xml version="1.0"?>
<VTKFile type="UnstructuredGrid">
  <UnstructuredGrid>
  <Piece NumberOfPoints="13"  NumberOfCells="23">
    <Points>
      <DataArray type="Float64" NumberOfComponents="3" format="ascii">
0 0 0
2.99763 0.00893576 0
5.9952 0.0194568 0
8.9927 0.0312261 0
11.9901 0.0438666 0
14.9875 0.0565294 0
15.9853 0.558433 0
14.9858 1.05696 0
11.9885 1.04386 0
8.99132 1.03122 0
5.99417 1.01945 0
2.99706 1.00893 0
0 1 0
      </DataArray>
    </Points>
    <Cells>
      <DataArray type="Int32" Name="connectivity" format="ascii">
0 1
1 2
2 3
3 4
4 5
5 6
0 12
0 11
1 11
1 10
2 10
2 9
3 9
3 8
4 8
4 7
5 7
7 6
11 12
11 10
10 9
8 9
7 8
      </DataArray>
      <DataArray type="Int32" Name="offsets" format="ascii">
2
4
6
8
10
12
14
16
18
20
22
24
26
28
30
32
34
36
38
40
42
44
46
      </DataArray>
      <DataArray type="UInt8" Name="types" format="ascii">
4
4
4
4
4
4
4
4
4
4
4
4
4
4
4
4
4
4
4
4
4
4
4
      </DataArray>
    </Cells>
    <PointData>
      <DataArray type="Float64" NumberOfComponents="3" Name="Displacement" format="ascii">
0 0 0
-0.00237096 0.00893576 0
-0.00480218 0.0194568 0
-0.00729972 0.0312261 0
-0.00986704 0.0438666 0
-0.012502 0.0565294 0
-0.0146728 0.0584325 0
-0.0141844 0.0569604 0
-0.0114623 0.0438578 0
-0.00867603 0.031218 0
-0.00583158 0.0194498 0
-0.00293663 0.0089299 0
0 0 0
      </DataArray> 
    </PointData>
    <CellData>
    </CellData>
  </Piece>
  </UnstructuredGrid>
</VTKFile>
