<?xml version="1.0"?>
<VTKFile type="UnstructuredGrid">
  <UnstructuredGrid>
  <Piece NumberOfPoints="13"  NumberOfCells="23">
    <Points>
      <DataArray type="Float64" NumberOfComponents="3" format="ascii">
0 0 0
2.99873 0.0339642 0
5.99626 0.0972402 0
8.99216 0.185239 0
11.9862 0.291595 0
14.9786 0.407574 0
15.9591 0.940093 0
14.9465 1.40794 0
11.9563 1.291 0
8.96684 1.18479 0
5.97785 1.09696 0
2.98897 1.03384 0
0 1 0
      </DataArray>
    </Points>
    <Cells>
      <DataArray type="Int32" Name="connectivity" format="ascii">
0 1
1 2
2 3
3 4
4 5
5 6
0 12
0 11
1 11
1 10
2 10
2 9
3 9
3 8
4 8
4 7
5 7
7 6
11 12
11 10
10 9
8 9
7 8
      </DataArray>
      <DataArray type="Int32" Name="offsets" format="ascii">
2
4
6
8
10
12
14
16
18
20
22
24
26
28
30
32
34
36
38
40
42
44
46
      </DataArray>
      <DataArray type="UInt8" Name="types" format="ascii">
4
4
4
4
4
4
4
4
4
4
4
4
4
4
4
4
4
4
4
4
4
4
4
      </DataArray>
    </Cells>
    <PointData>
      <DataArray type="Float64" NumberOfComponents="3" Name="Displacement" format="ascii">
0 0 0
-0.00126834 0.0339642 0
-0.00373737 0.0972402 0
-0.00784069 0.185239 0
-0.0137631 0.291595 0
-0.0213862 0.407574 0
-0.0408694 0.440093 0
-0.0534963 0.407944 0
-0.0437425 0.291001 0
-0.0331581 0.184789 0
-0.0221511 0.0969633 0
-0.0110346 0.0338393 0
0 0 0
      </DataArray> 
    </PointData>
    <CellData>
    </CellData>
  </Piece>
  </UnstructuredGrid>
</VTKFile>
