<?xml version="1.0"?>
<VTKFile type="UnstructuredGrid">
  <UnstructuredGrid>
  <Piece NumberOfPoints="13"  NumberOfCells="23">
    <Points>
      <DataArray type="Float64" NumberOfComponents="3" format="ascii">
0 0 0
3.03902 0.95932 0
5.11115 3.3319 0
6.22631 6.23372 0
6.61805 9.27237 0
6.60598 12.2886 0
6.13251 13.309 0
5.60938 12.329 0
5.63509 9.40024 0
5.29469 6.5517 0
4.33535 3.91943 0
2.61049 1.80807 0
0 1 0
      </DataArray>
    </Points>
    <Cells>
      <DataArray type="Int32" Name="connectivity" format="ascii">
0 1
1 2
2 3
3 4
4 5
5 6
0 12
0 11
1 11
1 10
2 10
2 9
3 9
3 8
4 8
4 7
5 7
7 6
11 12
11 10
10 9
8 9
7 8
      </DataArray>
      <DataArray type="Int32" Name="offsets" format="ascii">
2
4
6
8
10
12
14
16
18
20
22
24
26
28
30
32
34
36
38
40
42
44
46
      </DataArray>
      <DataArray type="UInt8" Name="types" format="ascii">
4
4
4
4
4
4
4
4
4
4
4
4
4
4
4
4
4
4
4
4
4
4
4
      </DataArray>
    </Cells>
    <PointData>
      <DataArray type="Float64" NumberOfComponents="3" Name="Displacement" format="ascii">
0 0 0
0.039018 0.95932 0
-0.88885 3.3319 0
-2.77369 6.23372 0
-5.38195 9.27237 0
-8.39402 12.2886 0
-9.86749 12.809 0
-9.39062 11.329 0
-6.36491 8.40024 0
-3.70531 5.5517 0
-1.66465 2.91943 0
-0.389509 0.808072 0
0 0 0
      </DataArray> 
    </PointData>
    <CellData>
    </CellData>
  </Piece>
  </UnstructuredGrid>
</VTKFile>
