<?xml version="1.0"?>
<VTKFile type="UnstructuredGrid">
  <UnstructuredGrid>
  <Piece NumberOfPoints="13"  NumberOfCells="23">
    <Points>
      <DataArray type="Float64" NumberOfComponents="3" format="ascii">
0 0 0
3.04793 0.899529 0
5.2698 3.12508 0
6.5957 5.93313 0
7.22649 8.9292 0
7.46016 11.9354 0
7.07128 12.9904 0
6.46994 12.0564 0
6.25641 9.13433 0
5.68914 6.3187 0
4.52947 3.75941 0
2.6386 1.76616 0
0 1 0
      </DataArray>
    </Points>
    <Cells>
      <DataArray type="Int32" Name="connectivity" format="ascii">
0 1
1 2
2 3
3 4
4 5
5 6
0 12
0 11
1 11
1 10
2 10
2 9
3 9
3 8
4 8
4 7
5 7
7 6
11 12
11 10
10 9
8 9
7 8
      </DataArray>
      <DataArray type="Int32" Name="offsets" format="ascii">
2
4
6
8
10
12
14
16
18
20
22
24
26
28
30
32
34
36
38
40
42
44
46
      </DataArray>
      <DataArray type="UInt8" Name="types" format="ascii">
4
4
4
4
4
4
4
4
4
4
4
4
4
4
4
4
4
4
4
4
4
4
4
      </DataArray>
    </Cells>
    <PointData>
      <DataArray type="Float64" NumberOfComponents="3" Name="Displacement" format="ascii">
0 0 0
0.0479256 0.899529 0
-0.730199 3.12508 0
-2.4043 5.93313 0
-4.77351 8.9292 0
-7.53984 11.9354 0
-8.92872 12.4904 0
-8.53006 11.0564 0
-5.74359 8.13433 0
-3.31086 5.3187 0
-1.47053 2.75941 0
-0.3614 0.76616 0
0 0 0
      </DataArray> 
    </PointData>
    <CellData>
    </CellData>
  </Piece>
  </UnstructuredGrid>
</VTKFile>
