<?xml version="1.0"?>
<VTKFile type="UnstructuredGrid">
  <UnstructuredGrid>
  <Piece NumberOfPoints="13"  NumberOfCells="23">
    <Points>
      <DataArray type="Float64" NumberOfComponents="3" format="ascii">
0 0 0
3.04172 0.662636 0
5.81544 2.01363 0
8.30253 3.79555 0
10.5566 5.82862 0
12.6638 7.98091 0
13.021 9.04565 0
11.9625 8.69103 0
9.88609 6.56589 0
7.7039 4.59004 0
5.34281 2.88541 0
2.76697 1.61002 0
0 1 0
      </DataArray>
    </Points>
    <Cells>
      <DataArray type="Int32" Name="connectivity" format="ascii">
0 1
1 2
2 3
3 4
4 5
5 6
0 12
0 11
1 11
1 10
2 10
2 9
3 9
3 8
4 8
4 7
5 7
7 6
11 12
11 10
10 9
8 9
7 8
      </DataArray>
      <DataArray type="Int32" Name="offsets" format="ascii">
2
4
6
8
10
12
14
16
18
20
22
24
26
28
30
32
34
36
38
40
42
44
46
      </DataArray>
      <DataArray type="UInt8" Name="types" format="ascii">
4
4
4
4
4
4
4
4
4
4
4
4
4
4
4
4
4
4
4
4
4
4
4
      </DataArray>
    </Cells>
    <PointData>
      <DataArray type="Float64" NumberOfComponents="3" Name="Displacement" format="ascii">
0 0 0
0.041717 0.662636 0
-0.184562 2.01363 0
-0.697469 3.79555 0
-1.44344 5.82862 0
-2.33623 7.98091 0
-2.97898 8.54565 0
-3.03748 7.69103 0
-2.11391 5.56589 0
-1.2961 3.59004 0
-0.657187 1.88541 0
-0.233027 0.610016 0
0 0 0
      </DataArray> 
    </PointData>
    <CellData>
    </CellData>
  </Piece>
  </UnstructuredGrid>
</VTKFile>
