<?xml version="1.0"?>
<VTKFile type="UnstructuredGrid">
  <UnstructuredGrid>
  <Piece NumberOfPoints="13"  NumberOfCells="23">
    <Points>
      <DataArray type="Float64" NumberOfComponents="3" format="ascii">
0 0 0
3.00217 0.00991167 0
6.00376 0.032931 0
9.00475 0.066028 0
12.0052 0.106175 0
15.005 0.15032 0
15.9978 0.664695 0
14.9907 1.15019 0
11.9917 1.10603 0
8.99316 1.0659 0
5.99502 1.03283 0
2.99729 1.00984 0
0 1 0
      </DataArray>
    </Points>
    <Cells>
      <DataArray type="Int32" Name="connectivity" format="ascii">
0 1
1 2
2 3
3 4
4 5
5 6
0 12
0 11
1 11
1 10
2 10
2 9
3 9
3 8
4 8
4 7
5 7
7 6
11 12
11 10
10 9
8 9
7 8
      </DataArray>
      <DataArray type="Int32" Name="offsets" format="ascii">
2
4
6
8
10
12
14
16
18
20
22
24
26
28
30
32
34
36
38
40
42
44
46
      </DataArray>
      <DataArray type="UInt8" Name="types" format="ascii">
4
4
4
4
4
4
4
4
4
4
4
4
4
4
4
4
4
4
4
4
4
4
4
      </DataArray>
    </Cells>
    <PointData>
      <DataArray type="Float64" NumberOfComponents="3" Name="Displacement" format="ascii">
0 0 0
0.00216547 0.00991167 0
0.00375635 0.032931 0
0.00475 0.066028 0
0.00515424 0.106175 0
0.00499863 0.15032 0
-0.00223956 0.164695 0
-0.00928444 0.150189 0
-0.0082883 0.106029 0
-0.00684426 0.0659039 0
-0.00498139 0.0328349 0
-0.00270741 0.00984061 0
0 0 0
      </DataArray> 
    </PointData>
    <CellData>
    </CellData>
  </Piece>
  </UnstructuredGrid>
</VTKFile>
