<?xml version="1.0"?>
<VTKFile type="UnstructuredGrid">
  <UnstructuredGrid>
  <Piece NumberOfPoints="13"  NumberOfCells="23">
    <Points>
      <DataArray type="Float64" NumberOfComponents="3" format="ascii">
0 0 0
3.00124 0.00565878 0
6.00217 0.0188069 0
9.00279 0.0377145 0
12.0031 0.0606523 0
15.0031 0.085876 0
15.999 0.594102 0
14.9949 1.08583 0
11.9954 1.06059 0
8.99616 1.03766 0
5.99718 1.01876 0
2.99846 1.00562 0
0 1 0
      </DataArray>
    </Points>
    <Cells>
      <DataArray type="Int32" Name="connectivity" format="ascii">
0 1
1 2
2 3
3 4
4 5
5 6
0 12
0 11
1 11
1 10
2 10
2 9
3 9
3 8
4 8
4 7
5 7
7 6
11 12
11 10
10 9
8 9
7 8
      </DataArray>
      <DataArray type="Int32" Name="offsets" format="ascii">
2
4
6
8
10
12
14
16
18
20
22
24
26
28
30
32
34
36
38
40
42
44
46
      </DataArray>
      <DataArray type="UInt8" Name="types" format="ascii">
4
4
4
4
4
4
4
4
4
4
4
4
4
4
4
4
4
4
4
4
4
4
4
      </DataArray>
    </Cells>
    <PointData>
      <DataArray type="Float64" NumberOfComponents="3" Name="Displacement" format="ascii">
0 0 0
0.00124198 0.00565878 0
0.00217292 0.0188069 0
0.00278541 0.0377145 0
0.00308201 0.0606523 0
0.00307236 0.085876 0
-0.00103809 0.0941021 0
-0.00508886 0.0858266 0
-0.00459901 0.0605907 0
-0.00383948 0.0376602 0
-0.00281975 0.0187618 0
-0.00154235 0.00562186 0
0 0 0
      </DataArray> 
    </PointData>
    <CellData>
    </CellData>
  </Piece>
  </UnstructuredGrid>
</VTKFile>
