<?xml version="1.0"?>
<VTKFile type="UnstructuredGrid">
  <UnstructuredGrid>
  <Piece NumberOfPoints="13"  NumberOfCells="23">
    <Points>
      <DataArray type="Float64" NumberOfComponents="3" format="ascii">
0 0 0
3.02349 0.122435 0
6.03049 0.402803 0
9.01791 0.803088 0
11.987 1.28619 0
14.9422 1.81551 0
15.8416 2.4812 0
14.7709 2.80036 0
11.8257 2.27237 0
8.87855 1.79252 0
5.92526 1.3963 0
2.96471 1.11956 0
0 1 0
      </DataArray>
    </Points>
    <Cells>
      <DataArray type="Int32" Name="connectivity" format="ascii">
0 1
1 2
2 3
3 4
4 5
5 6
0 12
0 11
1 11
1 10
2 10
2 9
3 9
3 8
4 8
4 7
5 7
7 6
11 12
11 10
10 9
8 9
7 8
      </DataArray>
      <DataArray type="Int32" Name="offsets" format="ascii">
2
4
6
8
10
12
14
16
18
20
22
24
26
28
30
32
34
36
38
40
42
44
46
      </DataArray>
      <DataArray type="UInt8" Name="types" format="ascii">
4
4
4
4
4
4
4
4
4
4
4
4
4
4
4
4
4
4
4
4
4
4
4
      </DataArray>
    </Cells>
    <PointData>
      <DataArray type="Float64" NumberOfComponents="3" Name="Displacement" format="ascii">
0 0 0
0.0234873 0.122435 0
0.0304936 0.402803 0
0.0179124 0.803088 0
-0.0129688 1.28619 0
-0.057817 1.81551 0
-0.158431 1.9812 0
-0.229145 1.80036 0
-0.174291 1.27237 0
-0.121449 0.792516 0
-0.0747428 0.396297 0
-0.0352916 0.119562 0
0 0 0
      </DataArray> 
    </PointData>
    <CellData>
    </CellData>
  </Piece>
  </UnstructuredGrid>
</VTKFile>
