<?xml version="1.0"?>
<VTKFile type="UnstructuredGrid">
  <UnstructuredGrid>
  <Piece NumberOfPoints="13"  NumberOfCells="23">
    <Points>
      <DataArray type="Float64" NumberOfComponents="3" format="ascii">
0 0 0
3.03626 0.212925 0
6.03168 0.69364 0
8.97796 1.37396 0
11.8793 2.18971 0
14.7484 3.07967 0
15.5612 3.84967 0
14.4601 4.03655 0
11.6076 3.15077 0
8.74246 2.34428 0
5.85314 1.67561 0
2.9362 1.20538 0
0 1 0
      </DataArray>
    </Points>
    <Cells>
      <DataArray type="Int32" Name="connectivity" format="ascii">
0 1
1 2
2 3
3 4
4 5
5 6
0 12
0 11
1 11
1 10
2 10
2 9
3 9
3 8
4 8
4 7
5 7
7 6
11 12
11 10
10 9
8 9
7 8
      </DataArray>
      <DataArray type="Int32" Name="offsets" format="ascii">
2
4
6
8
10
12
14
16
18
20
22
24
26
28
30
32
34
36
38
40
42
44
46
      </DataArray>
      <DataArray type="UInt8" Name="types" format="ascii">
4
4
4
4
4
4
4
4
4
4
4
4
4
4
4
4
4
4
4
4
4
4
4
      </DataArray>
    </Cells>
    <PointData>
      <DataArray type="Float64" NumberOfComponents="3" Name="Displacement" format="ascii">
0 0 0
0.036257 0.212925 0
0.0316808 0.69364 0
-0.0220351 1.37396 0
-0.120663 2.18971 0
-0.251642 3.07967 0
-0.438803 3.34967 0
-0.539895 3.03655 0
-0.392437 2.15077 0
-0.257537 1.34428 0
-0.146862 0.675607 0
-0.0638016 0.205383 0
0 0 0
      </DataArray> 
    </PointData>
    <CellData>
    </CellData>
  </Piece>
  </UnstructuredGrid>
</VTKFile>
