<?xml version="1.0"?>
<VTKFile type="UnstructuredGrid">
  <UnstructuredGrid>
  <Piece NumberOfPoints="13"  NumberOfCells="23">
    <Points>
      <DataArray type="Float64" NumberOfComponents="3" format="ascii">
0 0 0
3.04642 0.604734 0
5.86045 1.85722 0
8.42026 3.52677 0
10.77 5.44509 0
12.9857 7.48412 0
13.3973 8.52859 0
12.3219 8.22959 0
10.1367 6.21481 0
7.8574 4.3475 0
5.41893 2.74608 0
2.79132 1.55931 0
0 1 0
      </DataArray>
    </Points>
    <Cells>
      <DataArray type="Int32" Name="connectivity" format="ascii">
0 1
1 2
2 3
3 4
4 5
5 6
0 12
0 11
1 11
1 10
2 10
2 9
3 9
3 8
4 8
4 7
5 7
7 6
11 12
11 10
10 9
8 9
7 8
      </DataArray>
      <DataArray type="Int32" Name="offsets" format="ascii">
2
4
6
8
10
12
14
16
18
20
22
24
26
28
30
32
34
36
38
40
42
44
46
      </DataArray>
      <DataArray type="UInt8" Name="types" format="ascii">
4
4
4
4
4
4
4
4
4
4
4
4
4
4
4
4
4
4
4
4
4
4
4
      </DataArray>
    </Cells>
    <PointData>
      <DataArray type="Float64" NumberOfComponents="3" Name="Displacement" format="ascii">
0 0 0
0.0464168 0.604734 0
-0.139549 1.85722 0
-0.579742 3.52677 0
-1.22999 5.44509 0
-2.01434 7.48412 0
-2.60267 8.02859 0
-2.67813 7.22959 0
-1.86329 5.21481 0
-1.1426 3.3475 0
-0.581068 1.74608 0
-0.208683 0.559305 0
0 0 0
      </DataArray> 
    </PointData>
    <CellData>
    </CellData>
  </Piece>
  </UnstructuredGrid>
</VTKFile>
