<?xml version="1.0"?>
<VTKFile type="UnstructuredGrid">
  <UnstructuredGrid>
  <Piece NumberOfPoints="13"  NumberOfCells="23">
    <Points>
      <DataArray type="Float64" NumberOfComponents="3" format="ascii">
0 0 0
3.04466 0.628821 0
5.84223 1.92281 0
8.37198 3.64015 0
10.6819 5.60761 0
12.8523 7.69534 0
13.2411 8.74874 0
12.1724 8.42607 0
10.0327 6.36382 0
7.79387 4.44999 0
5.38753 2.80461 0
2.78129 1.58043 0
0 1 0
      </DataArray>
    </Points>
    <Cells>
      <DataArray type="Int32" Name="connectivity" format="ascii">
0 1
1 2
2 3
3 4
4 5
5 6
0 12
0 11
1 11
1 10
2 10
2 9
3 9
3 8
4 8
4 7
5 7
7 6
11 12
11 10
10 9
8 9
7 8
      </DataArray>
      <DataArray type="Int32" Name="offsets" format="ascii">
2
4
6
8
10
12
14
16
18
20
22
24
26
28
30
32
34
36
38
40
42
44
46
      </DataArray>
      <DataArray type="UInt8" Name="types" format="ascii">
4
4
4
4
4
4
4
4
4
4
4
4
4
4
4
4
4
4
4
4
4
4
4
      </DataArray>
    </Cells>
    <PointData>
      <DataArray type="Float64" NumberOfComponents="3" Name="Displacement" format="ascii">
0 0 0
0.0446552 0.628821 0
-0.157773 1.92281 0
-0.628018 3.64015 0
-1.31808 5.60761 0
-2.14767 7.69534 0
-2.75894 8.24874 0
-2.82756 7.42607 0
-1.9673 5.36382 0
-1.20613 3.44999 0
-0.612466 1.80461 0
-0.218715 0.580432 0
0 0 0
      </DataArray> 
    </PointData>
    <CellData>
    </CellData>
  </Piece>
  </UnstructuredGrid>
</VTKFile>
