<?xml version="1.0"?>
<VTKFile type="UnstructuredGrid">
  <UnstructuredGrid>
  <Piece NumberOfPoints="13"  NumberOfCells="23">
    <Points>
      <DataArray type="Float64" NumberOfComponents="3" format="ascii">
0 0 0
3.04695 0.329635 0
6.00855 1.05787 0
8.86876 2.07342 0
11.6388 3.27795 0
14.3469 4.58297 0
15.0398 5.46359 0
13.9237 5.48788 0
11.2387 4.19232 0
8.52 3.00795 0
5.74209 2.01812 0
2.89661 1.31339 0
0 1 0
      </DataArray>
    </Points>
    <Cells>
      <DataArray type="Int32" Name="connectivity" format="ascii">
0 1
1 2
2 3
3 4
4 5
5 6
0 12
0 11
1 11
1 10
2 10
2 9
3 9
3 8
4 8
4 7
5 7
7 6
11 12
11 10
10 9
8 9
7 8
      </DataArray>
      <DataArray type="Int32" Name="offsets" format="ascii">
2
4
6
8
10
12
14
16
18
20
22
24
26
28
30
32
34
36
38
40
42
44
46
      </DataArray>
      <DataArray type="UInt8" Name="types" format="ascii">
4
4
4
4
4
4
4
4
4
4
4
4
4
4
4
4
4
4
4
4
4
4
4
      </DataArray>
    </Cells>
    <PointData>
      <DataArray type="Float64" NumberOfComponents="3" Name="Displacement" format="ascii">
0 0 0
0.0469455 0.329635 0
0.00855472 1.05787 0
-0.131236 2.07342 0
-0.361165 3.27795 0
-0.653113 4.58297 0
-0.96015 4.96359 0
-1.07634 4.48788 0
-0.76127 3.19232 0
-0.479998 2.00795 0
-0.257905 1.01812 0
-0.103386 0.313391 0
0 0 0
      </DataArray> 
    </PointData>
    <CellData>
    </CellData>
  </Piece>
  </UnstructuredGrid>
</VTKFile>
