<?xml version="1.0"?>
<VTKFile type="UnstructuredGrid">
  <UnstructuredGrid>
  <Piece NumberOfPoints="13"  NumberOfCells="23">
    <Points>
      <DataArray type="Float64" NumberOfComponents="3" format="ascii">
0 0 0
3.03198 0.179379 0
6.03327 0.58661 0
8.99768 1.16498 0
11.9281 1.86032 0
14.8336 2.62022 0
15.6794 3.35344 0
14.5876 3.58892 0
11.6962 2.83199 0
8.79703 2.14338 0
5.88141 1.57345 0
2.947 1.1738 0
0 1 0
      </DataArray>
    </Points>
    <Cells>
      <DataArray type="Int32" Name="connectivity" format="ascii">
0 1
1 2
2 3
3 4
4 5
5 6
0 12
0 11
1 11
1 10
2 10
2 9
3 9
3 8
4 8
4 7
5 7
7 6
11 12
11 10
10 9
8 9
7 8
      </DataArray>
      <DataArray type="Int32" Name="offsets" format="ascii">
2
4
6
8
10
12
14
16
18
20
22
24
26
28
30
32
34
36
38
40
42
44
46
      </DataArray>
      <DataArray type="UInt8" Name="types" format="ascii">
4
4
4
4
4
4
4
4
4
4
4
4
4
4
4
4
4
4
4
4
4
4
4
      </DataArray>
    </Cells>
    <PointData>
      <DataArray type="Float64" NumberOfComponents="3" Name="Displacement" format="ascii">
0 0 0
0.0319796 0.179379 0
0.0332708 0.58661 0
-0.00232238 1.16498 0
-0.0718919 1.86032 0
-0.166373 2.62022 0
-0.32055 2.85344 0
-0.412431 2.58892 0
-0.303751 1.83199 0
-0.202972 1.14338 0
-0.118592 0.573449 0
-0.0530039 0.173799 0
0 0 0
      </DataArray> 
    </PointData>
    <CellData>
    </CellData>
  </Piece>
  </UnstructuredGrid>
</VTKFile>
