<?xml version="1.0"?>
<VTKFile type="UnstructuredGrid">
  <UnstructuredGrid>
  <Piece NumberOfPoints="13"  NumberOfCells="23">
    <Points>
      <DataArray type="Float64" NumberOfComponents="3" format="ascii">
0 0 0
3.04856 0.357921 0
5.99906 1.14407 0
8.83373 2.23595 0
11.5661 3.52717 0
14.2288 4.92353 0
14.8922 5.82699 0
13.7758 5.81382 0
11.1375 4.42836 0
8.45949 3.1603 0
5.71249 2.09809 0
2.88656 1.33918 0
0 1 0
      </DataArray>
    </Points>
    <Cells>
      <DataArray type="Int32" Name="connectivity" format="ascii">
0 1
1 2
2 3
3 4
4 5
5 6
0 12
0 11
1 11
1 10
2 10
2 9
3 9
3 8
4 8
4 7
5 7
7 6
11 12
11 10
10 9
8 9
7 8
      </DataArray>
      <DataArray type="Int32" Name="offsets" format="ascii">
2
4
6
8
10
12
14
16
18
20
22
24
26
28
30
32
34
36
38
40
42
44
46
      </DataArray>
      <DataArray type="UInt8" Name="types" format="ascii">
4
4
4
4
4
4
4
4
4
4
4
4
4
4
4
4
4
4
4
4
4
4
4
      </DataArray>
    </Cells>
    <PointData>
      <DataArray type="Float64" NumberOfComponents="3" Name="Displacement" format="ascii">
0 0 0
0.0485557 0.357921 0
-0.000941542 1.14407 0
-0.166274 2.23595 0
-0.433855 3.52717 0
-0.77115 4.92353 0
-1.10785 5.32699 0
-1.22416 4.81382 0
-0.862455 3.42836 0
-0.540512 2.1603 0
-0.287509 1.09809 0
-0.11344 0.339176 0
0 0 0
      </DataArray> 
    </PointData>
    <CellData>
    </CellData>
  </Piece>
  </UnstructuredGrid>
</VTKFile>
