<?xml version="1.0"?>
<VTKFile type="UnstructuredGrid">
  <UnstructuredGrid>
  <Piece NumberOfPoints="13"  NumberOfCells="23">
    <Points>
      <DataArray type="Float64" NumberOfComponents="3" format="ascii">
0 0 0
3.0289 0.157471 0
6.03303 0.516198 0
9.00748 1.02677 0
11.9545 1.64157 0
14.881 2.31416 0
15.7478 3.02215 0
14.6632 3.28968 0
11.7493 2.61937 0
8.83011 2.00983 0
5.89891 1.50585 0
2.9539 1.15303 0
0 1 0
      </DataArray>
    </Points>
    <Cells>
      <DataArray type="Int32" Name="connectivity" format="ascii">
0 1
1 2
2 3
3 4
4 5
5 6
0 12
0 11
1 11
1 10
2 10
2 9
3 9
3 8
4 8
4 7
5 7
7 6
11 12
11 10
10 9
8 9
7 8
      </DataArray>
      <DataArray type="Int32" Name="offsets" format="ascii">
2
4
6
8
10
12
14
16
18
20
22
24
26
28
30
32
34
36
38
40
42
44
46
      </DataArray>
      <DataArray type="UInt8" Name="types" format="ascii">
4
4
4
4
4
4
4
4
4
4
4
4
4
4
4
4
4
4
4
4
4
4
4
      </DataArray>
    </Cells>
    <PointData>
      <DataArray type="Float64" NumberOfComponents="3" Name="Displacement" format="ascii">
0 0 0
0.0288957 0.157471 0
0.0330297 0.516198 0
0.00748226 1.02677 0
-0.04555 1.64157 0
-0.119009 2.31416 0
-0.252179 2.52215 0
-0.336759 2.28968 0
-0.250669 1.61937 0
-0.169894 1.00983 0
-0.101088 0.505846 0
-0.0460962 0.153028 0
0 0 0
      </DataArray> 
    </PointData>
    <CellData>
    </CellData>
  </Piece>
  </UnstructuredGrid>
</VTKFile>
