<?xml version="1.0"?>
<VTKFile type="UnstructuredGrid">
  <UnstructuredGrid>
  <Piece NumberOfPoints="13"  NumberOfCells="23">
    <Points>
      <DataArray type="Float64" NumberOfComponents="3" format="ascii">
0 0 0
3.04953 0.546677 0
5.90125 1.6961 0
8.53191 3.24423 0
10.977 5.0356 0
13.3019 6.94755 0
13.7703 7.96734 0
12.6799 7.72852 0
10.3849 5.83776 0
8.00805 4.09091 0
5.49289 2.60161 0
2.81495 1.50817 0
0 1 0
      </DataArray>
    </Points>
    <Cells>
      <DataArray type="Int32" Name="connectivity" format="ascii">
0 1
1 2
2 3
3 4
4 5
5 6
0 12
0 11
1 11
1 10
2 10
2 9
3 9
3 8
4 8
4 7
5 7
7 6
11 12
11 10
10 9
8 9
7 8
      </DataArray>
      <DataArray type="Int32" Name="offsets" format="ascii">
2
4
6
8
10
12
14
16
18
20
22
24
26
28
30
32
34
36
38
40
42
44
46
      </DataArray>
      <DataArray type="UInt8" Name="types" format="ascii">
4
4
4
4
4
4
4
4
4
4
4
4
4
4
4
4
4
4
4
4
4
4
4
      </DataArray>
    </Cells>
    <PointData>
      <DataArray type="Float64" NumberOfComponents="3" Name="Displacement" format="ascii">
0 0 0
0.049529 0.546677 0
-0.0987496 1.6961 0
-0.468092 3.24423 0
-1.02304 5.0356 0
-1.69815 6.94755 0
-2.22968 7.46734 0
-2.32005 6.72852 0
-1.61511 4.83776 0
-0.991947 3.09091 0
-0.507115 1.60161 0
-0.185054 0.508171 0
0 0 0
      </DataArray> 
    </PointData>
    <CellData>
    </CellData>
  </Piece>
  </UnstructuredGrid>
</VTKFile>
