<?xml version="1.0"?>
<VTKFile type="UnstructuredGrid">
  <UnstructuredGrid>
  <Piece NumberOfPoints="13"  NumberOfCells="23">
    <Points>
      <DataArray type="Float64" NumberOfComponents="3" format="ascii">
0 0 0
3.05103 0.437046 0
5.96504 1.38054 0
8.72041 2.67507 0
11.3386 4.19255 0
13.8653 5.82478 0
14.4458 6.7843 0
13.3353 6.67115 0
10.8358 5.0541 0
8.27914 3.56859 0
5.62479 2.31552 0
2.8575 1.41061 0
0 1 0
      </DataArray>
    </Points>
    <Cells>
      <DataArray type="Int32" Name="connectivity" format="ascii">
0 1
1 2
2 3
3 4
4 5
5 6
0 12
0 11
1 11
1 10
2 10
2 9
3 9
3 8
4 8
4 7
5 7
7 6
11 12
11 10
10 9
8 9
7 8
      </DataArray>
      <DataArray type="Int32" Name="offsets" format="ascii">
2
4
6
8
10
12
14
16
18
20
22
24
26
28
30
32
34
36
38
40
42
44
46
      </DataArray>
      <DataArray type="UInt8" Name="types" format="ascii">
4
4
4
4
4
4
4
4
4
4
4
4
4
4
4
4
4
4
4
4
4
4
4
      </DataArray>
    </Cells>
    <PointData>
      <DataArray type="Float64" NumberOfComponents="3" Name="Displacement" format="ascii">
0 0 0
0.0510312 0.437046 0
-0.0349605 1.38054 0
-0.279591 2.67507 0
-0.661423 4.19255 0
-1.13465 5.82478 0
-1.55423 6.2843 0
-1.66474 5.67115 0
-1.16417 4.0541 0
-0.720865 2.56859 0
-0.375214 1.31552 0
-0.142501 0.410611 0
0 0 0
      </DataArray> 
    </PointData>
    <CellData>
    </CellData>
  </Piece>
  </UnstructuredGrid>
</VTKFile>
