<?xml version="1.0"?>
<VTKFile type="UnstructuredGrid">
  <UnstructuredGrid>
  <Piece NumberOfPoints="13"  NumberOfCells="23">
    <Points>
      <DataArray type="Float64" NumberOfComponents="3" format="ascii">
0 0 0
3.04799 0.57911 0
5.87902 1.78663 0
8.4704 3.40368 0
10.8624 5.26747 0
13.1263 7.25213 0
13.5628 8.28628 0
12.4804 8.01329 0
10.2468 6.05154 0
7.92437 4.23593 0
5.45189 2.68291 0
2.80184 1.53678 0
0 1 0
      </DataArray>
    </Points>
    <Cells>
      <DataArray type="Int32" Name="connectivity" format="ascii">
0 1
1 2
2 3
3 4
4 5
5 6
0 12
0 11
1 11
1 10
2 10
2 9
3 9
3 8
4 8
4 7
5 7
7 6
11 12
11 10
10 9
8 9
7 8
      </DataArray>
      <DataArray type="Int32" Name="offsets" format="ascii">
2
4
6
8
10
12
14
16
18
20
22
24
26
28
30
32
34
36
38
40
42
44
46
      </DataArray>
      <DataArray type="UInt8" Name="types" format="ascii">
4
4
4
4
4
4
4
4
4
4
4
4
4
4
4
4
4
4
4
4
4
4
4
      </DataArray>
    </Cells>
    <PointData>
      <DataArray type="Float64" NumberOfComponents="3" Name="Displacement" format="ascii">
0 0 0
0.047988 0.57911 0
-0.120983 1.78663 0
-0.529595 3.40368 0
-1.13762 5.26747 0
-1.87373 7.25213 0
-2.43725 7.78628 0
-2.51959 7.01329 0
-1.75322 5.05154 0
-1.07563 3.23593 0
-0.548114 1.68291 0
-0.198159 0.536775 0
0 0 0
      </DataArray> 
    </PointData>
    <CellData>
    </CellData>
  </Piece>
  </UnstructuredGrid>
</VTKFile>
