<?xml version="1.0"?>
<VTKFile type="UnstructuredGrid">
  <UnstructuredGrid>
  <Piece NumberOfPoints="13"  NumberOfCells="23">
    <Points>
      <DataArray type="Float64" NumberOfComponents="3" format="ascii">
0 0 0
3.04319 0.646414 0
5.82846 1.97025 0
8.33608 3.72155 0
10.6169 5.72363 0
12.7544 7.84549 0
13.1266 8.90497 0
12.0632 8.56549 0
9.95648 6.46997 0
7.74716 4.52341 0
5.36436 2.84685 0
2.77387 1.59583 0
0 1 0
      </DataArray>
    </Points>
    <Cells>
      <DataArray type="Int32" Name="connectivity" format="ascii">
0 1
1 2
2 3
3 4
4 5
5 6
0 12
0 11
1 11
1 10
2 10
2 9
3 9
3 8
4 8
4 7
5 7
7 6
11 12
11 10
10 9
8 9
7 8
      </DataArray>
      <DataArray type="Int32" Name="offsets" format="ascii">
2
4
6
8
10
12
14
16
18
20
22
24
26
28
30
32
34
36
38
40
42
44
46
      </DataArray>
      <DataArray type="UInt8" Name="types" format="ascii">
4
4
4
4
4
4
4
4
4
4
4
4
4
4
4
4
4
4
4
4
4
4
4
      </DataArray>
    </Cells>
    <PointData>
      <DataArray type="Float64" NumberOfComponents="3" Name="Displacement" format="ascii">
0 0 0
0.0431943 0.646414 0
-0.171539 1.97025 0
-0.66392 3.72155 0
-1.38308 5.72363 0
-2.24561 7.84549 0
-2.87336 8.40497 0
-2.93679 7.56549 0
-2.04352 5.46997 0
-1.25284 3.52341 0
-0.635643 1.84685 0
-0.226127 0.595834 0
0 0 0
      </DataArray> 
    </PointData>
    <CellData>
    </CellData>
  </Piece>
  </UnstructuredGrid>
</VTKFile>
