<?xml version="1.0"?>
<VTKFile type="UnstructuredGrid">
  <UnstructuredGrid>
  <Piece NumberOfPoints="13"  NumberOfCells="23">
    <Points>
      <DataArray type="Float64" NumberOfComponents="3" format="ascii">
0 0 0
3.05089 0.427454 0
5.96973 1.35225 0
8.73526 2.62308 0
11.3679 4.11442 0
13.9117 5.7196 0
14.5021 6.67291 0
13.3905 6.57148 0
10.8737 4.98096 0
8.30178 3.52051 0
5.63578 2.28966 0
2.8611 1.402 0
0 1 0
      </DataArray>
    </Points>
    <Cells>
      <DataArray type="Int32" Name="connectivity" format="ascii">
0 1
1 2
2 3
3 4
4 5
5 6
0 12
0 11
1 11
1 10
2 10
2 9
3 9
3 8
4 8
4 7
5 7
7 6
11 12
11 10
10 9
8 9
7 8
      </DataArray>
      <DataArray type="Int32" Name="offsets" format="ascii">
2
4
6
8
10
12
14
16
18
20
22
24
26
28
30
32
34
36
38
40
42
44
46
      </DataArray>
      <DataArray type="UInt8" Name="types" format="ascii">
4
4
4
4
4
4
4
4
4
4
4
4
4
4
4
4
4
4
4
4
4
4
4
      </DataArray>
    </Cells>
    <PointData>
      <DataArray type="Float64" NumberOfComponents="3" Name="Displacement" format="ascii">
0 0 0
0.0508902 0.427454 0
-0.0302732 1.35225 0
-0.264739 2.62308 0
-0.632124 4.11442 0
-1.08829 5.7196 0
-1.49787 6.17291 0
-1.60953 5.57148 0
-1.12632 3.98096 0
-0.69822 2.52051 0
-0.364221 1.28966 0
-0.138905 0.402002 0
0 0 0
      </DataArray> 
    </PointData>
    <CellData>
    </CellData>
  </Piece>
  </UnstructuredGrid>
</VTKFile>
