<?xml version="1.0"?>
<VTKFile type="UnstructuredGrid">
  <UnstructuredGrid>
  <Piece NumberOfPoints="13"  NumberOfCells="23">
    <Points>
      <DataArray type="Float64" NumberOfComponents="3" format="ascii">
0 0 0
3.05058 0.513786 0
5.92229 1.60295 0
8.59181 3.07834 0
11.09 4.79232 0
13.4764 6.62593 0
13.978 7.62962 0
12.8803 7.42687 0
10.5232 5.61265 0
8.09148 3.93945 0
5.53359 2.51761 0
2.82799 1.47905 0
0 1 0
      </DataArray>
    </Points>
    <Cells>
      <DataArray type="Int32" Name="connectivity" format="ascii">
0 1
1 2
2 3
3 4
4 5
5 6
0 12
0 11
1 11
1 10
2 10
2 9
3 9
3 8
4 8
4 7
5 7
7 6
11 12
11 10
10 9
8 9
7 8
      </DataArray>
      <DataArray type="Int32" Name="offsets" format="ascii">
2
4
6
8
10
12
14
16
18
20
22
24
26
28
30
32
34
36
38
40
42
44
46
      </DataArray>
      <DataArray type="UInt8" Name="types" format="ascii">
4
4
4
4
4
4
4
4
4
4
4
4
4
4
4
4
4
4
4
4
4
4
4
      </DataArray>
    </Cells>
    <PointData>
      <DataArray type="Float64" NumberOfComponents="3" Name="Displacement" format="ascii">
0 0 0
0.0505806 0.513786 0
-0.0777136 1.60295 0
-0.408194 3.07834 0
-0.909968 4.79232 0
-1.52355 6.62593 0
-2.02204 7.12962 0
-2.11969 6.42687 0
-1.47684 4.61265 0
-0.908516 2.93945 0
-0.466406 1.51761 0
-0.172006 0.479052 0
0 0 0
      </DataArray> 
    </PointData>
    <CellData>
    </CellData>
  </Piece>
  </UnstructuredGrid>
</VTKFile>
