<?xml version="1.0"?>
<VTKFile type="UnstructuredGrid">
  <UnstructuredGrid>
  <Piece NumberOfPoints="13"  NumberOfCells="23">
    <Points>
      <DataArray type="Float64" NumberOfComponents="3" format="ascii">
0 0 0
3.05104 0.488477 0
5.93739 1.53038 0
8.63604 2.94785 0
11.1746 4.5995 0
13.6079 6.36961 0
14.1352 7.35978 0
13.0326 7.18574 0
10.628 5.43364 0
8.15455 3.81986 0
5.56428 2.45191 0
2.83787 1.45656 0
0 1 0
      </DataArray>
    </Points>
    <Cells>
      <DataArray type="Int32" Name="connectivity" format="ascii">
0 1
1 2
2 3
3 4
4 5
5 6
0 12
0 11
1 11
1 10
2 10
2 9
3 9
3 8
4 8
4 7
5 7
7 6
11 12
11 10
10 9
8 9
7 8
      </DataArray>
      <DataArray type="Int32" Name="offsets" format="ascii">
2
4
6
8
10
12
14
16
18
20
22
24
26
28
30
32
34
36
38
40
42
44
46
      </DataArray>
      <DataArray type="UInt8" Name="types" format="ascii">
4
4
4
4
4
4
4
4
4
4
4
4
4
4
4
4
4
4
4
4
4
4
4
      </DataArray>
    </Cells>
    <PointData>
      <DataArray type="Float64" NumberOfComponents="3" Name="Displacement" format="ascii">
0 0 0
0.0510392 0.488477 0
-0.0626088 1.53038 0
-0.363961 2.94785 0
-0.825436 4.5995 0
-1.39211 6.36961 0
-1.86483 6.85978 0
-1.9674 6.18574 0
-1.372 4.43364 0
-0.845454 2.81986 0
-0.43572 1.45191 0
-0.162131 0.456562 0
0 0 0
      </DataArray> 
    </PointData>
    <CellData>
    </CellData>
  </Piece>
  </UnstructuredGrid>
</VTKFile>
