<?xml version="1.0"?>
<VTKFile type="UnstructuredGrid">
  <UnstructuredGrid>
  <Piece NumberOfPoints="13"  NumberOfCells="23">
    <Points>
      <DataArray type="Float64" NumberOfComponents="3" format="ascii">
0 0 0
3.03608 0.211468 0
6.0318 0.689014 0
8.97894 1.36496 0
11.8817 2.17556 0
14.7524 3.05996 0
15.5667 3.82841 0
14.4659 4.01739 0
11.6116 3.13711 0
8.74493 2.33564 0
5.8544 1.67121 0
2.93667 1.20402 0
0 1 0
      </DataArray>
    </Points>
    <Cells>
      <DataArray type="Int32" Name="connectivity" format="ascii">
0 1
1 2
2 3
3 4
4 5
5 6
0 12
0 11
1 11
1 10
2 10
2 9
3 9
3 8
4 8
4 7
5 7
7 6
11 12
11 10
10 9
8 9
7 8
      </DataArray>
      <DataArray type="Int32" Name="offsets" format="ascii">
2
4
6
8
10
12
14
16
18
20
22
24
26
28
30
32
34
36
38
40
42
44
46
      </DataArray>
      <DataArray type="UInt8" Name="types" format="ascii">
4
4
4
4
4
4
4
4
4
4
4
4
4
4
4
4
4
4
4
4
4
4
4
      </DataArray>
    </Cells>
    <PointData>
      <DataArray type="Float64" NumberOfComponents="3" Name="Displacement" format="ascii">
0 0 0
0.0360824 0.211468 0
0.0317984 0.689014 0
-0.0210642 1.36496 0
-0.11834 2.17556 0
-0.247632 3.05996 0
-0.433342 3.32841 0
-0.534083 3.01739 0
-0.388409 2.13711 0
-0.255073 1.33564 0
-0.145599 0.671205 0
-0.0633274 0.204017 0
0 0 0
      </DataArray> 
    </PointData>
    <CellData>
    </CellData>
  </Piece>
  </UnstructuredGrid>
</VTKFile>
