<?xml version="1.0"?>
<VTKFile type="UnstructuredGrid">
  <UnstructuredGrid>
  <Piece NumberOfPoints="13"  NumberOfCells="23">
    <Points>
      <DataArray type="Float64" NumberOfComponents="3" format="ascii">
0 0 0
3.03178 0.177919 0
6.03329 0.58193 0
8.99841 1.15581 0
11.93 1.84583 0
14.837 2.59997 0
15.6842 3.33154 0
14.5928 3.56915 0
11.6999 2.81793 0
8.7993 2.13453 0
5.8826 1.56897 0
2.94746 1.17242 0
0 1 0
      </DataArray>
    </Points>
    <Cells>
      <DataArray type="Int32" Name="connectivity" format="ascii">
0 1
1 2
2 3
3 4
4 5
5 6
0 12
0 11
1 11
1 10
2 10
2 9
3 9
3 8
4 8
4 7
5 7
7 6
11 12
11 10
10 9
8 9
7 8
      </DataArray>
      <DataArray type="Int32" Name="offsets" format="ascii">
2
4
6
8
10
12
14
16
18
20
22
24
26
28
30
32
34
36
38
40
42
44
46
      </DataArray>
      <DataArray type="UInt8" Name="types" format="ascii">
4
4
4
4
4
4
4
4
4
4
4
4
4
4
4
4
4
4
4
4
4
4
4
      </DataArray>
    </Cells>
    <PointData>
      <DataArray type="Float64" NumberOfComponents="3" Name="Displacement" format="ascii">
0 0 0
0.0317812 0.177919 0
0.0332865 0.58193 0
-0.00159224 1.15581 0
-0.0699979 1.84583 0
-0.163006 2.59997 0
-0.315769 2.83154 0
-0.407195 2.56915 0
-0.30009 1.81793 0
-0.200703 1.13453 0
-0.117401 0.568965 0
-0.0525399 0.172418 0
0 0 0
      </DataArray> 
    </PointData>
    <CellData>
    </CellData>
  </Piece>
  </UnstructuredGrid>
</VTKFile>
