<?xml version="1.0"?>
<VTKFile type="UnstructuredGrid">
  <UnstructuredGrid>
  <Piece NumberOfPoints="13"  NumberOfCells="23">
    <Points>
      <DataArray type="Float64" NumberOfComponents="3" format="ascii">
0 0 0
3.04251 0.272367 0
6.02322 0.880805 0
8.92984 1.73582 0
11.7697 2.75568 0
14.5626 3.86455 0
15.3151 4.69425 0
14.2032 4.79686 0
11.4304 3.69467 0
8.63504 2.68927 0
5.79892 1.85257 0
2.91642 1.26074 0
0 1 0
      </DataArray>
    </Points>
    <Cells>
      <DataArray type="Int32" Name="connectivity" format="ascii">
0 1
1 2
2 3
3 4
4 5
5 6
0 12
0 11
1 11
1 10
2 10
2 9
3 9
3 8
4 8
4 7
5 7
7 6
11 12
11 10
10 9
8 9
7 8
      </DataArray>
      <DataArray type="Int32" Name="offsets" format="ascii">
2
4
6
8
10
12
14
16
18
20
22
24
26
28
30
32
34
36
38
40
42
44
46
      </DataArray>
      <DataArray type="UInt8" Name="types" format="ascii">
4
4
4
4
4
4
4
4
4
4
4
4
4
4
4
4
4
4
4
4
4
4
4
      </DataArray>
    </Cells>
    <PointData>
      <DataArray type="Float64" NumberOfComponents="3" Name="Displacement" format="ascii">
0 0 0
0.0425148 0.272367 0
0.0232228 0.880805 0
-0.0701648 1.73582 0
-0.230337 2.75568 0
-0.437405 3.86455 0
-0.684889 4.19425 0
-0.796782 3.79686 0
-0.569592 2.69467 0
-0.364957 1.68927 0
-0.201077 0.852571 0
-0.0835769 0.260738 0
0 0 0
      </DataArray> 
    </PointData>
    <CellData>
    </CellData>
  </Piece>
  </UnstructuredGrid>
</VTKFile>
