<?xml version="1.0"?>
<VTKFile type="UnstructuredGrid">
  <UnstructuredGrid>
  <Piece NumberOfPoints="13"  NumberOfCells="23">
    <Points>
      <DataArray type="Float64" NumberOfComponents="3" format="ascii">
0 0 0
3.04485 0.626297 0
5.84417 1.91597 0
8.37709 3.62838 0
10.6912 5.59078 0
12.8663 7.67351 0
13.2575 8.72601 0
12.1881 8.40579 0
10.0436 6.3484 0
7.80055 4.43936 0
5.39084 2.79852 0
2.78234 1.57822 0
0 1 0
      </DataArray>
    </Points>
    <Cells>
      <DataArray type="Int32" Name="connectivity" format="ascii">
0 1
1 2
2 3
3 4
4 5
5 6
0 12
0 11
1 11
1 10
2 10
2 9
3 9
3 8
4 8
4 7
5 7
7 6
11 12
11 10
10 9
8 9
7 8
      </DataArray>
      <DataArray type="Int32" Name="offsets" format="ascii">
2
4
6
8
10
12
14
16
18
20
22
24
26
28
30
32
34
36
38
40
42
44
46
      </DataArray>
      <DataArray type="UInt8" Name="types" format="ascii">
4
4
4
4
4
4
4
4
4
4
4
4
4
4
4
4
4
4
4
4
4
4
4
      </DataArray>
    </Cells>
    <PointData>
      <DataArray type="Float64" NumberOfComponents="3" Name="Displacement" format="ascii">
0 0 0
0.0448527 0.626297 0
-0.155829 1.91597 0
-0.622911 3.62838 0
-1.3088 5.59078 0
-2.13366 7.67351 0
-2.74254 8.22601 0
-2.81189 7.40579 0
-1.95638 5.3484 0
-1.19945 3.43936 0
-0.609158 1.79852 0
-0.217657 0.57822 0
0 0 0
      </DataArray> 
    </PointData>
    <CellData>
    </CellData>
  </Piece>
  </UnstructuredGrid>
</VTKFile>
