<?xml version="1.0"?>
<VTKFile type="UnstructuredGrid">
  <UnstructuredGrid>
  <Piece NumberOfPoints="13"  NumberOfCells="23">
    <Points>
      <DataArray type="Float64" NumberOfComponents="3" format="ascii">
0 0 0
3.04445 0.631342 0
5.84028 1.92963 0
8.36687 3.65189 0
10.6726 5.62437 0
12.8383 7.71707 0
13.2247 8.77136 0
12.1568 8.44626 0
10.0218 6.37917 0
7.78719 4.46059 0
5.38422 2.81069 0
2.78023 1.58264 0
0 1 0
      </DataArray>
    </Points>
    <Cells>
      <DataArray type="Int32" Name="connectivity" format="ascii">
0 1
1 2
2 3
3 4
4 5
5 6
0 12
0 11
1 11
1 10
2 10
2 9
3 9
3 8
4 8
4 7
5 7
7 6
11 12
11 10
10 9
8 9
7 8
      </DataArray>
      <DataArray type="Int32" Name="offsets" format="ascii">
2
4
6
8
10
12
14
16
18
20
22
24
26
28
30
32
34
36
38
40
42
44
46
      </DataArray>
      <DataArray type="UInt8" Name="types" format="ascii">
4
4
4
4
4
4
4
4
4
4
4
4
4
4
4
4
4
4
4
4
4
4
4
      </DataArray>
    </Cells>
    <PointData>
      <DataArray type="Float64" NumberOfComponents="3" Name="Displacement" format="ascii">
0 0 0
0.0444549 0.631342 0
-0.159722 1.92963 0
-0.633131 3.65189 0
-1.32736 5.62437 0
-2.16168 7.71707 0
-2.77532 8.27136 0
-2.84321 7.44626 0
-1.97821 5.37917 0
-1.21281 3.46059 0
-0.615775 1.81069 0
-0.219772 0.58264 0
0 0 0
      </DataArray> 
    </PointData>
    <CellData>
    </CellData>
  </Piece>
  </UnstructuredGrid>
</VTKFile>
