<?xml version="1.0"?>
<VTKFile type="UnstructuredGrid">
  <UnstructuredGrid>
  <Piece NumberOfPoints="13"  NumberOfCells="23">
    <Points>
      <DataArray type="Float64" NumberOfComponents="3" format="ascii">
0 0 0
3.04933 0.374768 0
5.99272 1.195 0
8.81143 2.33138 0
11.5205 3.67279 0
14.1553 5.1218 0
14.8009 6.03814 0
13.6851 6.00307 0
11.0755 4.56586 0
8.42239 3.24944 0
5.6944 2.14516 0
2.88049 1.35447 0
0 1 0
      </DataArray>
    </Points>
    <Cells>
      <DataArray type="Int32" Name="connectivity" format="ascii">
0 1
1 2
2 3
3 4
4 5
5 6
0 12
0 11
1 11
1 10
2 10
2 9
3 9
3 8
4 8
4 7
5 7
7 6
11 12
11 10
10 9
8 9
7 8
      </DataArray>
      <DataArray type="Int32" Name="offsets" format="ascii">
2
4
6
8
10
12
14
16
18
20
22
24
26
28
30
32
34
36
38
40
42
44
46
      </DataArray>
      <DataArray type="UInt8" Name="types" format="ascii">
4
4
4
4
4
4
4
4
4
4
4
4
4
4
4
4
4
4
4
4
4
4
4
      </DataArray>
    </Cells>
    <PointData>
      <DataArray type="Float64" NumberOfComponents="3" Name="Displacement" format="ascii">
0 0 0
0.0493331 0.374768 0
-0.00727986 1.195 0
-0.188573 2.33138 0
-0.479454 3.67279 0
-0.844667 5.1218 0
-1.19906 5.53814 0
-1.31486 5.00307 0
-0.92453 3.56586 0
-0.577608 2.24944 0
-0.305596 1.14516 0
-0.119512 0.354468 0
0 0 0
      </DataArray> 
    </PointData>
    <CellData>
    </CellData>
  </Piece>
  </UnstructuredGrid>
</VTKFile>
