<?xml version="1.0"?>
<VTKFile type="UnstructuredGrid">
  <UnstructuredGrid>
  <Piece NumberOfPoints="13"  NumberOfCells="23">
    <Points>
      <DataArray type="Float64" NumberOfComponents="3" format="ascii">
0 0 0
3.05054 0.410928 0
5.97745 1.30326 0
8.76016 2.5327 0
11.4173 3.97816 0
13.9902 5.53573 0
14.5979 6.47798 0
13.4845 6.39701 0
10.9381 4.85319 0
8.34032 3.43674 0
5.65449 2.24477 0
2.86724 1.38714 0
0 1 0
      </DataArray>
    </Points>
    <Cells>
      <DataArray type="Int32" Name="connectivity" format="ascii">
0 1
1 2
2 3
3 4
4 5
5 6
0 12
0 11
1 11
1 10
2 10
2 9
3 9
3 8
4 8
4 7
5 7
7 6
11 12
11 10
10 9
8 9
7 8
      </DataArray>
      <DataArray type="Int32" Name="offsets" format="ascii">
2
4
6
8
10
12
14
16
18
20
22
24
26
28
30
32
34
36
38
40
42
44
46
      </DataArray>
      <DataArray type="UInt8" Name="types" format="ascii">
4
4
4
4
4
4
4
4
4
4
4
4
4
4
4
4
4
4
4
4
4
4
4
      </DataArray>
    </Cells>
    <PointData>
      <DataArray type="Float64" NumberOfComponents="3" Name="Displacement" format="ascii">
0 0 0
0.0505444 0.410928 0
-0.0225541 1.30326 0
-0.23984 2.5327 0
-0.582686 3.97816 0
-1.00979 5.53573 0
-1.4021 5.97798 0
-1.51546 5.39701 0
-1.06187 3.85319 0
-0.659679 2.43674 0
-0.345507 1.24477 0
-0.132756 0.387137 0
0 0 0
      </DataArray> 
    </PointData>
    <CellData>
    </CellData>
  </Piece>
  </UnstructuredGrid>
</VTKFile>
