<?xml version="1.0"?>
<VTKFile type="UnstructuredGrid">
  <UnstructuredGrid>
  <Piece NumberOfPoints="13"  NumberOfCells="23">
    <Points>
      <DataArray type="Float64" NumberOfComponents="3" format="ascii">
0 0 0
3.05073 0.419204 0
5.97364 1.32783 0
8.7478 2.57809 0
11.3927 4.04666 0
13.9511 5.62823 0
14.5502 6.57608 0
13.4376 6.48482 0
10.906 4.91745 0
8.3211 3.47883 0
5.64516 2.2673 0
2.86417 1.39459 0
0 1 0
      </DataArray>
    </Points>
    <Cells>
      <DataArray type="Int32" Name="connectivity" format="ascii">
0 1
1 2
2 3
3 4
4 5
5 6
0 12
0 11
1 11
1 10
2 10
2 9
3 9
3 8
4 8
4 7
5 7
7 6
11 12
11 10
10 9
8 9
7 8
      </DataArray>
      <DataArray type="Int32" Name="offsets" format="ascii">
2
4
6
8
10
12
14
16
18
20
22
24
26
28
30
32
34
36
38
40
42
44
46
      </DataArray>
      <DataArray type="UInt8" Name="types" format="ascii">
4
4
4
4
4
4
4
4
4
4
4
4
4
4
4
4
4
4
4
4
4
4
4
      </DataArray>
    </Cells>
    <PointData>
      <DataArray type="Float64" NumberOfComponents="3" Name="Displacement" format="ascii">
0 0 0
0.0507339 0.419204 0
-0.0263629 1.32783 0
-0.252198 2.57809 0
-0.607276 4.04666 0
-1.04888 5.62823 0
-1.44985 6.07608 0
-1.56239 5.48482 0
-1.09402 3.91745 0
-0.678903 2.47883 0
-0.354843 1.2673 0
-0.135828 0.394586 0
0 0 0
      </DataArray> 
    </PointData>
    <CellData>
    </CellData>
  </Piece>
  </UnstructuredGrid>
</VTKFile>
