<?xml version="1.0"?>
<VTKFile type="UnstructuredGrid">
  <UnstructuredGrid>
  <Piece NumberOfPoints="13"  NumberOfCells="23">
    <Points>
      <DataArray type="Float64" NumberOfComponents="3" format="ascii">
0 0 0
3.051 0.434309 0
5.96639 1.37248 0
8.72468 2.66027 0
11.347 4.17033 0
13.8786 5.79488 0
14.4619 6.75265 0
13.3511 6.64283 0
10.8467 5.03331 0
8.28562 3.55491 0
5.62793 2.30816 0
2.85853 1.40816 0
0 1 0
      </DataArray>
    </Points>
    <Cells>
      <DataArray type="Int32" Name="connectivity" format="ascii">
0 1
1 2
2 3
3 4
4 5
5 6
0 12
0 11
1 11
1 10
2 10
2 9
3 9
3 8
4 8
4 7
5 7
7 6
11 12
11 10
10 9
8 9
7 8
      </DataArray>
      <DataArray type="Int32" Name="offsets" format="ascii">
2
4
6
8
10
12
14
16
18
20
22
24
26
28
30
32
34
36
38
40
42
44
46
      </DataArray>
      <DataArray type="UInt8" Name="types" format="ascii">
4
4
4
4
4
4
4
4
4
4
4
4
4
4
4
4
4
4
4
4
4
4
4
      </DataArray>
    </Cells>
    <PointData>
      <DataArray type="Float64" NumberOfComponents="3" Name="Displacement" format="ascii">
0 0 0
0.0509954 0.434309 0
-0.0336077 1.37248 0
-0.275324 2.66027 0
-0.653019 4.17033 0
-1.12137 5.79488 0
-1.53809 6.25265 0
-1.64894 5.64283 0
-1.15334 4.03331 0
-0.714383 2.55491 0
-0.372068 1.30816 0
-0.141473 0.408156 0
0 0 0
      </DataArray> 
    </PointData>
    <CellData>
    </CellData>
  </Piece>
  </UnstructuredGrid>
</VTKFile>
