<?xml version="1.0"?>
<VTKFile type="UnstructuredGrid">
  <UnstructuredGrid>
  <Piece NumberOfPoints="13"  NumberOfCells="23">
    <Points>
      <DataArray type="Float64" NumberOfComponents="3" format="ascii">
0 0 0
3.04897 0.559705 0
5.89249 1.73262 0
8.50748 3.30877 0
10.9313 5.12969 0
13.2317 7.07138 0
13.6872 8.09711 0
12.6 7.8444 0
10.3296 5.9246 0
7.9746 4.14968 0
5.47652 2.63444 0
2.80971 1.51967 0
0 1 0
      </DataArray>
    </Points>
    <Cells>
      <DataArray type="Int32" Name="connectivity" format="ascii">
0 1
1 2
2 3
3 4
4 5
5 6
0 12
0 11
1 11
1 10
2 10
2 9
3 9
3 8
4 8
4 7
5 7
7 6
11 12
11 10
10 9
8 9
7 8
      </DataArray>
      <DataArray type="Int32" Name="offsets" format="ascii">
2
4
6
8
10
12
14
16
18
20
22
24
26
28
30
32
34
36
38
40
42
44
46
      </DataArray>
      <DataArray type="UInt8" Name="types" format="ascii">
4
4
4
4
4
4
4
4
4
4
4
4
4
4
4
4
4
4
4
4
4
4
4
      </DataArray>
    </Cells>
    <PointData>
      <DataArray type="Float64" NumberOfComponents="3" Name="Displacement" format="ascii">
0 0 0
0.0489701 0.559705 0
-0.107506 1.73262 0
-0.492519 3.30877 0
-1.06873 5.12969 0
-1.76831 7.07138 0
-2.31277 7.59711 0
-2.40001 6.8444 0
-1.6704 4.9246 0
-1.0254 3.14968 0
-0.523484 1.63444 0
-0.190289 0.519673 0
0 0 0
      </DataArray> 
    </PointData>
    <CellData>
    </CellData>
  </Piece>
  </UnstructuredGrid>
</VTKFile>
