<?xml version="1.0"?>
<VTKFile type="UnstructuredGrid">
  <UnstructuredGrid>
  <Piece NumberOfPoints="13"  NumberOfCells="23">
    <Points>
      <DataArray type="Float64" NumberOfComponents="3" format="ascii">
0 0 0
3.03519 0.204183 0
6.03232 0.665843 0
8.98364 1.31982 0
11.893 2.10454 0
14.772 2.96104 0
15.5935 3.72168 0
14.4946 3.92116 0
11.6315 3.0685 0
8.75712 2.29235 0
5.86067 1.64914 0
2.93904 1.19718 0
0 1 0
      </DataArray>
    </Points>
    <Cells>
      <DataArray type="Int32" Name="connectivity" format="ascii">
0 1
1 2
2 3
3 4
4 5
5 6
0 12
0 11
1 11
1 10
2 10
2 9
3 9
3 8
4 8
4 7
5 7
7 6
11 12
11 10
10 9
8 9
7 8
      </DataArray>
      <DataArray type="Int32" Name="offsets" format="ascii">
2
4
6
8
10
12
14
16
18
20
22
24
26
28
30
32
34
36
38
40
42
44
46
      </DataArray>
      <DataArray type="UInt8" Name="types" format="ascii">
4
4
4
4
4
4
4
4
4
4
4
4
4
4
4
4
4
4
4
4
4
4
4
      </DataArray>
    </Cells>
    <PointData>
      <DataArray type="Float64" NumberOfComponents="3" Name="Displacement" format="ascii">
0 0 0
0.0351941 0.204183 0
0.0323207 0.665843 0
-0.0163622 1.31982 0
-0.106998 2.10454 0
-0.227986 2.96104 0
-0.406465 3.22168 0
-0.505381 2.92116 0
-0.368494 2.0685 0
-0.242876 1.29235 0
-0.139328 0.649143 0
-0.0609623 0.197177 0
0 0 0
      </DataArray> 
    </PointData>
    <CellData>
    </CellData>
  </Piece>
  </UnstructuredGrid>
</VTKFile>
