<?xml version="1.0"?>
<VTKFile type="UnstructuredGrid">
  <UnstructuredGrid>
  <Piece NumberOfPoints="13"  NumberOfCells="23">
    <Points>
      <DataArray type="Float64" NumberOfComponents="3" format="ascii">
0 0 0
3.05067 0.416448 0
5.97492 1.31966 0
8.75194 2.563 0
11.401 4.02391 0
13.9642 5.59752 0
14.5661 6.54352 0
13.4533 6.45568 0
10.9167 4.89612 0
8.32752 3.46485 0
5.64827 2.25981 0
2.8652 1.39211 0
0 1 0
      </DataArray>
    </Points>
    <Cells>
      <DataArray type="Int32" Name="connectivity" format="ascii">
0 1
1 2
2 3
3 4
4 5
5 6
0 12
0 11
1 11
1 10
2 10
2 9
3 9
3 8
4 8
4 7
5 7
7 6
11 12
11 10
10 9
8 9
7 8
      </DataArray>
      <DataArray type="Int32" Name="offsets" format="ascii">
2
4
6
8
10
12
14
16
18
20
22
24
26
28
30
32
34
36
38
40
42
44
46
      </DataArray>
      <DataArray type="UInt8" Name="types" format="ascii">
4
4
4
4
4
4
4
4
4
4
4
4
4
4
4
4
4
4
4
4
4
4
4
      </DataArray>
    </Cells>
    <PointData>
      <DataArray type="Float64" NumberOfComponents="3" Name="Displacement" format="ascii">
0 0 0
0.0506744 0.416448 0
-0.0250819 1.31966 0
-0.248058 2.563 0
-0.59905 4.02391 0
-1.03582 5.59752 0
-1.4339 6.04352 0
-1.54672 5.45568 0
-1.08329 3.89612 0
-0.672484 2.46485 0
-0.351726 1.25981 0
-0.134803 0.392107 0
0 0 0
      </DataArray> 
    </PointData>
    <CellData>
    </CellData>
  </Piece>
  </UnstructuredGrid>
</VTKFile>
