<?xml version="1.0"?>
<VTKFile type="UnstructuredGrid">
  <UnstructuredGrid>
  <Piece NumberOfPoints="13"  NumberOfCells="23">
    <Points>
      <DataArray type="Float64" NumberOfComponents="3" format="ascii">
0 0 0
3.00278 0.012751 0
6.00479 0.0423555 0
9.006 0.0849157 0
12.0064 0.136538 0
15.0061 0.193296 0
15.9968 0.71176 0
14.9877 1.19309 0
11.9891 1.13632 0
8.99109 1.08473 0
5.99356 1.04222 0
2.99651 1.01265 0
0 1 0
      </DataArray>
    </Points>
    <Cells>
      <DataArray type="Int32" Name="connectivity" format="ascii">
0 1
1 2
2 3
3 4
4 5
5 6
0 12
0 11
1 11
1 10
2 10
2 9
3 9
3 8
4 8
4 7
5 7
7 6
11 12
11 10
10 9
8 9
7 8
      </DataArray>
      <DataArray type="Int32" Name="offsets" format="ascii">
2
4
6
8
10
12
14
16
18
20
22
24
26
28
30
32
34
36
38
40
42
44
46
      </DataArray>
      <DataArray type="UInt8" Name="types" format="ascii">
4
4
4
4
4
4
4
4
4
4
4
4
4
4
4
4
4
4
4
4
4
4
4
      </DataArray>
    </Cells>
    <PointData>
      <DataArray type="Float64" NumberOfComponents="3" Name="Displacement" format="ascii">
0 0 0
0.00277727 0.012751 0
0.00478983 0.0423555 0
0.00600026 0.0849157 0
0.00642155 0.136538 0
0.00610256 0.193296 0
-0.00324197 0.21176 0
-0.0122618 0.193091 0
-0.010862 0.136316 0
-0.00890697 0.0847311 0
-0.00644473 0.0422173 0
-0.00348804 0.0126541 0
0 0 0
      </DataArray> 
    </PointData>
    <CellData>
    </CellData>
  </Piece>
  </UnstructuredGrid>
</VTKFile>
