<?xml version="1.0"?>
<VTKFile type="UnstructuredGrid">
  <UnstructuredGrid>
  <Piece NumberOfPoints="13"  NumberOfCells="23">
    <Points>
      <DataArray type="Float64" NumberOfComponents="3" format="ascii">
0 0 0
3.03555 0.207098 0
6.03212 0.675119 0
8.98179 1.3379 0
11.8885 2.133 0
14.7642 3.00068 0
15.5829 3.76446 0
14.4832 3.95973 0
11.6236 3.096 0
8.75227 2.30969 0
5.85817 1.65798 0
2.93809 1.19992 0
0 1 0
      </DataArray>
    </Points>
    <Cells>
      <DataArray type="Int32" Name="connectivity" format="ascii">
0 1
1 2
2 3
3 4
4 5
5 6
0 12
0 11
1 11
1 10
2 10
2 9
3 9
3 8
4 8
4 7
5 7
7 6
11 12
11 10
10 9
8 9
7 8
      </DataArray>
      <DataArray type="Int32" Name="offsets" format="ascii">
2
4
6
8
10
12
14
16
18
20
22
24
26
28
30
32
34
36
38
40
42
44
46
      </DataArray>
      <DataArray type="UInt8" Name="types" format="ascii">
4
4
4
4
4
4
4
4
4
4
4
4
4
4
4
4
4
4
4
4
4
4
4
      </DataArray>
    </Cells>
    <PointData>
      <DataArray type="Float64" NumberOfComponents="3" Name="Displacement" format="ascii">
0 0 0
0.0355526 0.207098 0
0.0321249 0.675119 0
-0.0182123 1.3379 0
-0.111481 2.133 0
-0.235764 3.00068 0
-0.417131 3.26446 0
-0.51679 2.95973 0
-0.376414 2.096 0
-0.24773 1.30969 0
-0.141827 0.657979 0
-0.061907 0.199915 0
0 0 0
      </DataArray> 
    </PointData>
    <CellData>
    </CellData>
  </Piece>
  </UnstructuredGrid>
</VTKFile>
