<?xml version="1.0"?>
<VTKFile type="UnstructuredGrid">
  <UnstructuredGrid>
  <Piece NumberOfPoints="13"  NumberOfCells="23">
    <Points>
      <DataArray type="Float64" NumberOfComponents="3" format="ascii">
0 0 0
3.03036 0.167696 0
6.03327 0.549109 0
9.00321 1.09144 0
11.9427 1.74401 0
14.8597 2.45758 0
15.7168 3.17746 0
14.6287 3.43001 0
11.7251 2.71903 0
8.81493 2.07238 0
5.89084 1.53748 0
2.95069 1.16274 0
0 1 0
      </DataArray>
    </Points>
    <Cells>
      <DataArray type="Int32" Name="connectivity" format="ascii">
0 1
1 2
2 3
3 4
4 5
5 6
0 12
0 11
1 11
1 10
2 10
2 9
3 9
3 8
4 8
4 7
5 7
7 6
11 12
11 10
10 9
8 9
7 8
      </DataArray>
      <DataArray type="Int32" Name="offsets" format="ascii">
2
4
6
8
10
12
14
16
18
20
22
24
26
28
30
32
34
36
38
40
42
44
46
      </DataArray>
      <DataArray type="UInt8" Name="types" format="ascii">
4
4
4
4
4
4
4
4
4
4
4
4
4
4
4
4
4
4
4
4
4
4
4
      </DataArray>
    </Cells>
    <PointData>
      <DataArray type="Float64" NumberOfComponents="3" Name="Displacement" format="ascii">
0 0 0
0.0303635 0.167696 0
0.0332696 0.549109 0
0.00321446 1.09144 0
-0.0572873 1.74401 0
-0.140269 2.45758 0
-0.283186 2.67746 0
-0.371302 2.43001 0
-0.27495 1.71903 0
-0.185073 1.07238 0
-0.109161 0.537484 0
-0.0493058 0.162736 0
0 0 0
      </DataArray> 
    </PointData>
    <CellData>
    </CellData>
  </Piece>
  </UnstructuredGrid>
</VTKFile>
