<?xml version="1.0"?>
<VTKFile type="UnstructuredGrid">
  <UnstructuredGrid>
  <Piece NumberOfPoints="13"  NumberOfCells="23">
    <Points>
      <DataArray type="Float64" NumberOfComponents="3" format="ascii">
0 0 0
3.04415 0.635119 0
5.83734 1.93984 0
8.35919 3.66943 0
10.6587 5.6494 0
12.8173 7.74949 0
13.2001 8.80511 0
12.1333 8.47637 0
10.0054 6.40208 0
7.77718 4.47642 0
5.37926 2.81978 0
2.77864 1.58595 0
0 1 0
      </DataArray>
    </Points>
    <Cells>
      <DataArray type="Int32" Name="connectivity" format="ascii">
0 1
1 2
2 3
3 4
4 5
5 6
0 12
0 11
1 11
1 10
2 10
2 9
3 9
3 8
4 8
4 7
5 7
7 6
11 12
11 10
10 9
8 9
7 8
      </DataArray>
      <DataArray type="Int32" Name="offsets" format="ascii">
2
4
6
8
10
12
14
16
18
20
22
24
26
28
30
32
34
36
38
40
42
44
46
      </DataArray>
      <DataArray type="UInt8" Name="types" format="ascii">
4
4
4
4
4
4
4
4
4
4
4
4
4
4
4
4
4
4
4
4
4
4
4
      </DataArray>
    </Cells>
    <PointData>
      <DataArray type="Float64" NumberOfComponents="3" Name="Displacement" format="ascii">
0 0 0
0.0441492 0.635119 0
-0.162657 1.93984 0
-0.640811 3.66943 0
-1.34129 5.6494 0
-2.18269 7.74949 0
-2.79988 8.30511 0
-2.86666 7.47637 0
-1.99457 5.40208 0
-1.22282 3.47642 0
-0.62074 1.81978 0
-0.22136 0.585948 0
0 0 0
      </DataArray> 
    </PointData>
    <CellData>
    </CellData>
  </Piece>
  </UnstructuredGrid>
</VTKFile>
