<?xml version="1.0"?>
<VTKFile type="UnstructuredGrid">
  <UnstructuredGrid>
  <Piece NumberOfPoints="13"  NumberOfCells="23">
    <Points>
      <DataArray type="Float64" NumberOfComponents="3" format="ascii">
0 0 0
3.05118 0.471004 0
5.94725 1.47982 0
8.66556 2.85631 0
11.2315 4.46352 0
13.6969 6.18813 0
14.2422 7.16837 0
13.1366 7.01464 0
10.6995 5.30708 0
8.19744 3.73574 0
5.58512 2.40601 0
2.8446 1.44099 0
0 1 0
      </DataArray>
    </Points>
    <Cells>
      <DataArray type="Int32" Name="connectivity" format="ascii">
0 1
1 2
2 3
3 4
4 5
5 6
0 12
0 11
1 11
1 10
2 10
2 9
3 9
3 8
4 8
4 7
5 7
7 6
11 12
11 10
10 9
8 9
7 8
      </DataArray>
      <DataArray type="Int32" Name="offsets" format="ascii">
2
4
6
8
10
12
14
16
18
20
22
24
26
28
30
32
34
36
38
40
42
44
46
      </DataArray>
      <DataArray type="UInt8" Name="types" format="ascii">
4
4
4
4
4
4
4
4
4
4
4
4
4
4
4
4
4
4
4
4
4
4
4
      </DataArray>
    </Cells>
    <PointData>
      <DataArray type="Float64" NumberOfComponents="3" Name="Displacement" format="ascii">
0 0 0
0.0511779 0.471004 0
-0.052749 1.47982 0
-0.334437 2.85631 0
-0.768479 4.46352 0
-1.30308 6.18813 0
-1.75785 6.66837 0
-1.86344 6.01464 0
-1.30054 4.30708 0
-0.802561 2.73574 0
-0.414878 1.40601 0
-0.155396 0.440989 0
0 0 0
      </DataArray> 
    </PointData>
    <CellData>
    </CellData>
  </Piece>
  </UnstructuredGrid>
</VTKFile>
