<?xml version="1.0"?>
<VTKFile type="UnstructuredGrid">
  <UnstructuredGrid>
  <Piece NumberOfPoints="13"  NumberOfCells="23">
    <Points>
      <DataArray type="Float64" NumberOfComponents="3" format="ascii">
0 0 0
3.05001 0.533576 0
5.90982 1.65916 0
8.55608 3.17866 0
11.0224 4.93969 0
13.3719 6.82099 0
13.8534 7.83456 0
12.76 7.60994 0
10.4402 5.74911 0
8.04147 4.03112 0
5.50921 2.56834 0
2.82017 1.49659 0
0 1 0
      </DataArray>
    </Points>
    <Cells>
      <DataArray type="Int32" Name="connectivity" format="ascii">
0 1
1 2
2 3
3 4
4 5
5 6
0 12
0 11
1 11
1 10
2 10
2 9
3 9
3 8
4 8
4 7
5 7
7 6
11 12
11 10
10 9
8 9
7 8
      </DataArray>
      <DataArray type="Int32" Name="offsets" format="ascii">
2
4
6
8
10
12
14
16
18
20
22
24
26
28
30
32
34
36
38
40
42
44
46
      </DataArray>
      <DataArray type="UInt8" Name="types" format="ascii">
4
4
4
4
4
4
4
4
4
4
4
4
4
4
4
4
4
4
4
4
4
4
4
      </DataArray>
    </Cells>
    <PointData>
      <DataArray type="Float64" NumberOfComponents="3" Name="Displacement" format="ascii">
0 0 0
0.0500095 0.533576 0
-0.0901843 1.65916 0
-0.443921 3.17866 0
-0.977598 4.93969 0
-1.62814 6.82099 0
-2.14658 7.33456 0
-2.23996 6.60994 0
-1.55979 4.74911 0
-0.958529 3.03112 0
-0.490791 1.56834 0
-0.179828 0.496587 0
0 0 0
      </DataArray> 
    </PointData>
    <CellData>
    </CellData>
  </Piece>
  </UnstructuredGrid>
</VTKFile>
