<?xml version="1.0"?>
<VTKFile type="UnstructuredGrid">
  <UnstructuredGrid>
  <Piece NumberOfPoints="13"  NumberOfCells="23">
    <Points>
      <DataArray type="Float64" NumberOfComponents="3" format="ascii">
0 0 0
3.02372 0.123893 0
6.03065 0.407542 0
9.01761 0.812461 0
11.9859 1.30111 0
14.94 1.83648 0
15.8381 2.50398 0
14.7667 2.82098 0
11.8227 2.28698 0
8.87665 1.80165 0
5.9242 1.40089 0
2.96426 1.12096 0
0 1 0
      </DataArray>
    </Points>
    <Cells>
      <DataArray type="Int32" Name="connectivity" format="ascii">
0 1
1 2
2 3
3 4
4 5
5 6
0 12
0 11
1 11
1 10
2 10
2 9
3 9
3 8
4 8
4 7
5 7
7 6
11 12
11 10
10 9
8 9
7 8
      </DataArray>
      <DataArray type="Int32" Name="offsets" format="ascii">
2
4
6
8
10
12
14
16
18
20
22
24
26
28
30
32
34
36
38
40
42
44
46
      </DataArray>
      <DataArray type="UInt8" Name="types" format="ascii">
4
4
4
4
4
4
4
4
4
4
4
4
4
4
4
4
4
4
4
4
4
4
4
      </DataArray>
    </Cells>
    <PointData>
      <DataArray type="Float64" NumberOfComponents="3" Name="Displacement" format="ascii">
0 0 0
0.0237241 0.123893 0
0.0306527 0.407542 0
0.0176101 0.812461 0
-0.0140834 1.30111 0
-0.0599939 1.83648 0
-0.161935 2.00398 0
-0.233281 1.82098 0
-0.177253 1.28698 0
-0.123352 0.801651 0
-0.0757978 0.400892 0
-0.0357353 0.120961 0
0 0 0
      </DataArray> 
    </PointData>
    <CellData>
    </CellData>
  </Piece>
  </UnstructuredGrid>
</VTKFile>
