<?xml version="1.0"?>
<VTKFile type="UnstructuredGrid">
  <UnstructuredGrid>
  <Piece NumberOfPoints="13"  NumberOfCells="23">
    <Points>
      <DataArray type="Float64" NumberOfComponents="3" format="ascii">
0 0 0
3.03968 0.243445 0
6.02822 0.790152 0
8.95529 1.56116 0
11.8266 2.48323 0
14.6582 3.48749 0
15.4403 4.28902 0
14.3329 4.43229 0
11.5196 3.43345 0
8.68894 2.52319 0
5.82594 1.76712 0
2.92615 1.2339 0
0 1 0
      </DataArray>
    </Points>
    <Cells>
      <DataArray type="Int32" Name="connectivity" format="ascii">
0 1
1 2
2 3
3 4
4 5
5 6
0 12
0 11
1 11
1 10
2 10
2 9
3 9
3 8
4 8
4 7
5 7
7 6
11 12
11 10
10 9
8 9
7 8
      </DataArray>
      <DataArray type="Int32" Name="offsets" format="ascii">
2
4
6
8
10
12
14
16
18
20
22
24
26
28
30
32
34
36
38
40
42
44
46
      </DataArray>
      <DataArray type="UInt8" Name="types" format="ascii">
4
4
4
4
4
4
4
4
4
4
4
4
4
4
4
4
4
4
4
4
4
4
4
      </DataArray>
    </Cells>
    <PointData>
      <DataArray type="Float64" NumberOfComponents="3" Name="Displacement" format="ascii">
0 0 0
0.0396811 0.243445 0
0.0282223 0.790152 0
-0.0447091 1.56116 0
-0.173426 2.48323 0
-0.341775 3.48749 0
-0.559657 3.78902 0
-0.667146 3.43229 0
-0.480382 2.43345 0
-0.311058 1.52319 0
-0.174063 0.767119 0
-0.0738539 0.233899 0
0 0 0
      </DataArray> 
    </PointData>
    <CellData>
    </CellData>
  </Piece>
  </UnstructuredGrid>
</VTKFile>
