<?xml version="1.0"?>
<VTKFile type="UnstructuredGrid">
  <UnstructuredGrid>
  <Piece NumberOfPoints="13"  NumberOfCells="23">
    <Points>
      <DataArray type="Float64" NumberOfComponents="3" format="ascii">
0 0 0
3.00785 0.0370081 0
6.01285 0.122699 0
9.0147 0.245749 0
12.0135 0.394881 0
15.0097 0.558753 0
15.9817 1.11161 0
14.9566 1.55724 0
11.9636 1.39342 0
8.97165 1.2446 0
5.9804 1.12194 0
2.98975 1.03659 0
0 1 0
      </DataArray>
    </Points>
    <Cells>
      <DataArray type="Int32" Name="connectivity" format="ascii">
0 1
1 2
2 3
3 4
4 5
5 6
0 12
0 11
1 11
1 10
2 10
2 9
3 9
3 8
4 8
4 7
5 7
7 6
11 12
11 10
10 9
8 9
7 8
      </DataArray>
      <DataArray type="Int32" Name="offsets" format="ascii">
2
4
6
8
10
12
14
16
18
20
22
24
26
28
30
32
34
36
38
40
42
44
46
      </DataArray>
      <DataArray type="UInt8" Name="types" format="ascii">
4
4
4
4
4
4
4
4
4
4
4
4
4
4
4
4
4
4
4
4
4
4
4
      </DataArray>
    </Cells>
    <PointData>
      <DataArray type="Float64" NumberOfComponents="3" Name="Displacement" format="ascii">
0 0 0
0.00784887 0.0370081 0
0.0128503 0.122699 0
0.0146951 0.245749 0
0.0134939 0.394881 0
0.00965534 0.558753 0
-0.0182603 0.611608 0
-0.0433684 0.55724 0
-0.0364089 0.393423 0
-0.0283519 0.244601 0
-0.0195962 0.121938 0
-0.0102475 0.0365924 0
0 0 0
      </DataArray> 
    </PointData>
    <CellData>
    </CellData>
  </Piece>
  </UnstructuredGrid>
</VTKFile>
