<?xml version="1.0"?>
<VTKFile type="UnstructuredGrid">
  <UnstructuredGrid>
  <Piece NumberOfPoints="13"  NumberOfCells="23">
    <Points>
      <DataArray type="Float64" NumberOfComponents="3" format="ascii">
0 0 0
3.04028 0.249242 0
6.02735 0.808386 0
8.95049 1.59638 0
11.8157 2.53829 0
14.6398 3.56381 0
15.416 4.37112 0
14.3075 4.50619 0
11.5022 3.48633 0
8.67838 2.55675 0
5.82062 1.78435 0
2.92421 1.23929 0
0 1 0
      </DataArray>
    </Points>
    <Cells>
      <DataArray type="Int32" Name="connectivity" format="ascii">
0 1
1 2
2 3
3 4
4 5
5 6
0 12
0 11
1 11
1 10
2 10
2 9
3 9
3 8
4 8
4 7
5 7
7 6
11 12
11 10
10 9
8 9
7 8
      </DataArray>
      <DataArray type="Int32" Name="offsets" format="ascii">
2
4
6
8
10
12
14
16
18
20
22
24
26
28
30
32
34
36
38
40
42
44
46
      </DataArray>
      <DataArray type="UInt8" Name="types" format="ascii">
4
4
4
4
4
4
4
4
4
4
4
4
4
4
4
4
4
4
4
4
4
4
4
      </DataArray>
    </Cells>
    <PointData>
      <DataArray type="Float64" NumberOfComponents="3" Name="Displacement" format="ascii">
0 0 0
0.0402812 0.249242 0
0.027353 0.808386 0
-0.049508 1.59638 0
-0.184308 2.53829 0
-0.360172 3.56381 0
-0.583953 3.87112 0
-0.692451 3.50619 0
-0.497821 2.48633 0
-0.321621 1.55675 0
-0.179383 0.784346 0
-0.0757875 0.239292 0
0 0 0
      </DataArray> 
    </PointData>
    <CellData>
    </CellData>
  </Piece>
  </UnstructuredGrid>
</VTKFile>
