<?xml version="1.0"?>
<VTKFile type="UnstructuredGrid">
  <UnstructuredGrid>
  <Piece NumberOfPoints="13"  NumberOfCells="23">
    <Points>
      <DataArray type="Float64" NumberOfComponents="3" format="ascii">
0 0 0
3.05086 0.500499 0
5.93034 1.56495 0
8.61524 3.01014 0
11.1347 4.6917 0
13.5458 6.49234 0
14.0608 7.48905 0
12.9605 7.30127 0
10.5784 5.51931 0
8.12472 3.877 0
5.54977 2.48324 0
2.8332 1.46725 0
0 1 0
      </DataArray>
    </Points>
    <Cells>
      <DataArray type="Int32" Name="connectivity" format="ascii">
0 1
1 2
2 3
3 4
4 5
5 6
0 12
0 11
1 11
1 10
2 10
2 9
3 9
3 8
4 8
4 7
5 7
7 6
11 12
11 10
10 9
8 9
7 8
      </DataArray>
      <DataArray type="Int32" Name="offsets" format="ascii">
2
4
6
8
10
12
14
16
18
20
22
24
26
28
30
32
34
36
38
40
42
44
46
      </DataArray>
      <DataArray type="UInt8" Name="types" format="ascii">
4
4
4
4
4
4
4
4
4
4
4
4
4
4
4
4
4
4
4
4
4
4
4
      </DataArray>
    </Cells>
    <PointData>
      <DataArray type="Float64" NumberOfComponents="3" Name="Displacement" format="ascii">
0 0 0
0.0508594 0.500499 0
-0.069664 1.56495 0
-0.384762 3.01014 0
-0.865303 4.6917 0
-1.4542 6.49234 0
-1.9392 6.98905 0
-2.03951 6.30127 0
-1.42162 4.51931 0
-0.875278 2.877 0
-0.450225 1.48324 0
-0.166804 0.467254 0
0 0 0
      </DataArray> 
    </PointData>
    <CellData>
    </CellData>
  </Piece>
  </UnstructuredGrid>
</VTKFile>
