<?xml version="1.0"?>
<VTKFile type="UnstructuredGrid">
  <UnstructuredGrid>
  <Piece NumberOfPoints="13"  NumberOfCells="23">
    <Points>
      <DataArray type="Float64" NumberOfComponents="3" format="ascii">
0 0 0
3.05024 0.399853 0
5.98236 1.27026 0
8.77634 2.47155 0
11.4497 3.88568 0
14.0418 5.41064 0
14.6611 6.34521 0
13.5468 6.27813 0
10.9808 4.76631 0
8.3658 3.37996 0
5.66687 2.21447 0
2.87133 1.37715 0
0 1 0
      </DataArray>
    </Points>
    <Cells>
      <DataArray type="Int32" Name="connectivity" format="ascii">
0 1
1 2
2 3
3 4
4 5
5 6
0 12
0 11
1 11
1 10
2 10
2 9
3 9
3 8
4 8
4 7
5 7
7 6
11 12
11 10
10 9
8 9
7 8
      </DataArray>
      <DataArray type="Int32" Name="offsets" format="ascii">
2
4
6
8
10
12
14
16
18
20
22
24
26
28
30
32
34
36
38
40
42
44
46
      </DataArray>
      <DataArray type="UInt8" Name="types" format="ascii">
4
4
4
4
4
4
4
4
4
4
4
4
4
4
4
4
4
4
4
4
4
4
4
      </DataArray>
    </Cells>
    <PointData>
      <DataArray type="Float64" NumberOfComponents="3" Name="Displacement" format="ascii">
0 0 0
0.0502397 0.399853 0
-0.0176377 1.27026 0
-0.22366 2.47155 0
-0.550324 3.88568 0
-0.958212 5.41064 0
-1.33892 5.84521 0
-1.45321 5.27813 0
-1.01924 3.76631 0
-0.634202 2.37996 0
-0.333129 1.21447 0
-0.128669 0.377153 0
0 0 0
      </DataArray> 
    </PointData>
    <CellData>
    </CellData>
  </Piece>
  </UnstructuredGrid>
</VTKFile>
