<?xml version="1.0"?>
<VTKFile type="UnstructuredGrid">
  <UnstructuredGrid>
  <Piece NumberOfPoints="13"  NumberOfCells="23">
    <Points>
      <DataArray type="Float64" NumberOfComponents="3" format="ascii">
0 0 0
3.04115 0.257927 0
6.02593 0.835642 0
8.94302 1.64895 0
11.7989 2.62035 0
14.6115 3.67745 0
15.3789 4.49329 0
14.269 4.61612 0
11.4756 3.56506 0
8.66233 2.60677 0
5.81256 1.81006 0
2.9213 1.24736 0
0 1 0
      </DataArray>
    </Points>
    <Cells>
      <DataArray type="Int32" Name="connectivity" format="ascii">
0 1
1 2
2 3
3 4
4 5
5 6
0 12
0 11
1 11
1 10
2 10
2 9
3 9
3 8
4 8
4 7
5 7
7 6
11 12
11 10
10 9
8 9
7 8
      </DataArray>
      <DataArray type="Int32" Name="offsets" format="ascii">
2
4
6
8
10
12
14
16
18
20
22
24
26
28
30
32
34
36
38
40
42
44
46
      </DataArray>
      <DataArray type="UInt8" Name="types" format="ascii">
4
4
4
4
4
4
4
4
4
4
4
4
4
4
4
4
4
4
4
4
4
4
4
      </DataArray>
    </Cells>
    <PointData>
      <DataArray type="Float64" NumberOfComponents="3" Name="Displacement" format="ascii">
0 0 0
0.04115 0.257927 0
0.0259257 0.835642 0
-0.0569839 1.64895 0
-0.201108 2.62035 0
-0.388463 3.67745 0
-0.621115 3.99329 0
-0.731006 3.61612 0
-0.524365 2.56506 0
-0.337672 1.60677 0
-0.187442 0.81006 0
-0.0786985 0.247359 0
0 0 0
      </DataArray> 
    </PointData>
    <CellData>
    </CellData>
  </Piece>
  </UnstructuredGrid>
</VTKFile>
