<?xml version="1.0"?>
<VTKFile type="UnstructuredGrid">
  <UnstructuredGrid>
  <Piece NumberOfPoints="13"  NumberOfCells="23">
    <Points>
      <DataArray type="Float64" NumberOfComponents="3" format="ascii">
0 0 0
3.01072 0.0513692 0
6.01698 0.170111 0
9.01819 0.340488 0
12.0146 0.546863 0
15.0069 0.773548 0
15.9675 1.34629 0
14.9335 1.77071 0
11.9455 1.54418 0
8.95863 1.3384 0
5.97208 1.16877 0
2.98568 1.05068 0
0 1 0
      </DataArray>
    </Points>
    <Cells>
      <DataArray type="Int32" Name="connectivity" format="ascii">
0 1
1 2
2 3
3 4
4 5
5 6
0 12
0 11
1 11
1 10
2 10
2 9
3 9
3 8
4 8
4 7
5 7
7 6
11 12
11 10
10 9
8 9
7 8
      </DataArray>
      <DataArray type="Int32" Name="offsets" format="ascii">
2
4
6
8
10
12
14
16
18
20
22
24
26
28
30
32
34
36
38
40
42
44
46
      </DataArray>
      <DataArray type="UInt8" Name="types" format="ascii">
4
4
4
4
4
4
4
4
4
4
4
4
4
4
4
4
4
4
4
4
4
4
4
      </DataArray>
    </Cells>
    <PointData>
      <DataArray type="Float64" NumberOfComponents="3" Name="Displacement" format="ascii">
0 0 0
0.0107203 0.0513692 0
0.0169782 0.170111 0
0.0181853 0.340488 0
0.0145567 0.546863 0
0.00687574 0.773548 0
-0.0325013 0.846292 0
-0.0664743 0.770705 0
-0.0544778 0.544182 0
-0.0413731 0.338401 0
-0.0279213 0.168765 0
-0.0143244 0.0506834 0
0 0 0
      </DataArray> 
    </PointData>
    <CellData>
    </CellData>
  </Piece>
  </UnstructuredGrid>
</VTKFile>
