<?xml version="1.0"?>
<VTKFile type="UnstructuredGrid">
  <UnstructuredGrid>
  <Piece NumberOfPoints="13"  NumberOfCells="23">
    <Points>
      <DataArray type="Float64" NumberOfComponents="3" format="ascii">
0 0 0
3.0511 0.443875 0
5.96161 1.40061 0
8.70966 2.71187 0
11.3175 4.24775 0
13.832 5.89898 0
14.4053 6.86282 0
13.2957 6.74139 0
10.8087 5.10572 0
8.26289 3.6026 0
5.6169 2.33386 0
2.85493 1.41673 0
0 1 0
      </DataArray>
    </Points>
    <Cells>
      <DataArray type="Int32" Name="connectivity" format="ascii">
0 1
1 2
2 3
3 4
4 5
5 6
0 12
0 11
1 11
1 10
2 10
2 9
3 9
3 8
4 8
4 7
5 7
7 6
11 12
11 10
10 9
8 9
7 8
      </DataArray>
      <DataArray type="Int32" Name="offsets" format="ascii">
2
4
6
8
10
12
14
16
18
20
22
24
26
28
30
32
34
36
38
40
42
44
46
      </DataArray>
      <DataArray type="UInt8" Name="types" format="ascii">
4
4
4
4
4
4
4
4
4
4
4
4
4
4
4
4
4
4
4
4
4
4
4
      </DataArray>
    </Cells>
    <PointData>
      <DataArray type="Float64" NumberOfComponents="3" Name="Displacement" format="ascii">
0 0 0
0.0511048 0.443875 0
-0.0383893 1.40061 0
-0.290341 2.71187 0
-0.682543 4.24775 0
-1.168 5.89898 0
-1.59468 6.36282 0
-1.70431 5.74139 0
-1.19131 4.10572 0
-0.737107 2.6026 0
-0.383098 1.33386 0
-0.145074 0.416733 0
0 0 0
      </DataArray> 
    </PointData>
    <CellData>
    </CellData>
  </Piece>
  </UnstructuredGrid>
</VTKFile>
