<?xml version="1.0"?>
<VTKFile type="UnstructuredGrid">
  <UnstructuredGrid>
  <Piece NumberOfPoints="13"  NumberOfCells="23">
    <Points>
      <DataArray type="Float64" NumberOfComponents="3" format="ascii">
0 0 0
3.0124 0.0600146 0
6.01923 0.198594 0
9.0197 0.397334 0
12.0141 0.637978 0
15.0035 0.902234 0
15.957 1.48678 0
14.918 1.8984 0
11.9336 1.63439 0
8.95026 1.39455 0
5.96688 1.19682 0
2.98319 1.05914 0
0 1 0
      </DataArray>
    </Points>
    <Cells>
      <DataArray type="Int32" Name="connectivity" format="ascii">
0 1
1 2
2 3
3 4
4 5
5 6
0 12
0 11
1 11
1 10
2 10
2 9
3 9
3 8
4 8
4 7
5 7
7 6
11 12
11 10
10 9
8 9
7 8
      </DataArray>
      <DataArray type="Int32" Name="offsets" format="ascii">
2
4
6
8
10
12
14
16
18
20
22
24
26
28
30
32
34
36
38
40
42
44
46
      </DataArray>
      <DataArray type="UInt8" Name="types" format="ascii">
4
4
4
4
4
4
4
4
4
4
4
4
4
4
4
4
4
4
4
4
4
4
4
      </DataArray>
    </Cells>
    <PointData>
      <DataArray type="Float64" NumberOfComponents="3" Name="Displacement" format="ascii">
0 0 0
0.0124017 0.0600146 0
0.019234 0.198594 0
0.0197 0.397334 0
0.0140948 0.637978 0
0.00348464 0.902234 0
-0.0429513 0.986778 0
-0.082025 0.898397 0
-0.0663861 0.634387 0
-0.0497408 0.394551 0
-0.0331224 0.196819 0
-0.0168053 0.0591376 0
0 0 0
      </DataArray> 
    </PointData>
    <CellData>
    </CellData>
  </Piece>
  </UnstructuredGrid>
</VTKFile>
