<?xml version="1.0"?>
<VTKFile type="UnstructuredGrid">
  <UnstructuredGrid>
  <Piece NumberOfPoints="13"  NumberOfCells="23">
    <Points>
      <DataArray type="Float64" NumberOfComponents="3" format="ascii">
0 0 0
3.04286 0.650167 0
5.82548 1.98031 0
8.32835 3.73876 0
10.603 5.74809 0
12.7334 7.87708 0
13.1022 8.9378 0
12.0399 8.59479 0
9.9402 6.49233 0
7.73717 4.53892 0
5.35939 2.8558 0
2.77228 1.59912 0
0 1 0
      </DataArray>
    </Points>
    <Cells>
      <DataArray type="Int32" Name="connectivity" format="ascii">
0 1
1 2
2 3
3 4
4 5
5 6
0 12
0 11
1 11
1 10
2 10
2 9
3 9
3 8
4 8
4 7
5 7
7 6
11 12
11 10
10 9
8 9
7 8
      </DataArray>
      <DataArray type="Int32" Name="offsets" format="ascii">
2
4
6
8
10
12
14
16
18
20
22
24
26
28
30
32
34
36
38
40
42
44
46
      </DataArray>
      <DataArray type="UInt8" Name="types" format="ascii">
4
4
4
4
4
4
4
4
4
4
4
4
4
4
4
4
4
4
4
4
4
4
4
      </DataArray>
    </Cells>
    <PointData>
      <DataArray type="Float64" NumberOfComponents="3" Name="Displacement" format="ascii">
0 0 0
0.0428636 0.650167 0
-0.174524 1.98031 0
-0.671645 3.73876 0
-1.39701 5.74809 0
-2.26655 7.87708 0
-2.89779 8.4378 0
-2.96009 7.59479 0
-2.0598 5.49233 0
-1.26283 3.53892 0
-0.640613 1.8558 0
-0.227718 0.599117 0
0 0 0
      </DataArray> 
    </PointData>
    <CellData>
    </CellData>
  </Piece>
  </UnstructuredGrid>
</VTKFile>
