<?xml version="1.0"?>
<VTKFile type="UnstructuredGrid">
  <UnstructuredGrid>
  <Piece NumberOfPoints="13"  NumberOfCells="23">
    <Points>
      <DataArray type="Float64" NumberOfComponents="3" format="ascii">
0 0 0
3.00579 0.0269944 0
6.00969 0.0895703 0
9.01153 0.179473 0
12.0114 0.288469 0
15.0095 0.40827 0
15.9893 0.947046 0
14.9707 1.40744 0
11.9749 1.28765 0
8.98007 1.17882 0
5.98597 1.08912 0
2.99256 1.02673 0
0 1 0
      </DataArray>
    </Points>
    <Cells>
      <DataArray type="Int32" Name="connectivity" format="ascii">
0 1
1 2
2 3
3 4
4 5
5 6
0 12
0 11
1 11
1 10
2 10
2 9
3 9
3 8
4 8
4 7
5 7
7 6
11 12
11 10
10 9
8 9
7 8
      </DataArray>
      <DataArray type="Int32" Name="offsets" format="ascii">
2
4
6
8
10
12
14
16
18
20
22
24
26
28
30
32
34
36
38
40
42
44
46
      </DataArray>
      <DataArray type="UInt8" Name="types" format="ascii">
4
4
4
4
4
4
4
4
4
4
4
4
4
4
4
4
4
4
4
4
4
4
4
      </DataArray>
    </Cells>
    <PointData>
      <DataArray type="Float64" NumberOfComponents="3" Name="Displacement" format="ascii">
0 0 0
0.00578893 0.0269944 0
0.00968917 0.0895703 0
0.0115349 0.179473 0
0.0113846 0.288469 0
0.00945637 0.40827 0
-0.0106698 0.447046 0
-0.0293065 0.407441 0
-0.0250965 0.287649 0
-0.0199322 0.178819 0
-0.014027 0.0891231 0
-0.00743757 0.0267314 0
0 0 0
      </DataArray> 
    </PointData>
    <CellData>
    </CellData>
  </Piece>
  </UnstructuredGrid>
</VTKFile>
