<?xml version="1.0"?>
<VTKFile type="UnstructuredGrid">
  <UnstructuredGrid>
  <Piece NumberOfPoints="13"  NumberOfCells="23">
    <Points>
      <DataArray type="Float64" NumberOfComponents="3" format="ascii">
0 0 0
3.0465 0.60346 0
5.86139 1.85373 0
8.42278 3.52071 0
10.7746 5.43637 0
12.9927 7.47276 0
13.4056 8.51674 0
12.3298 8.21901 0
10.1422 6.2068 0
7.86075 4.34201 0
5.42058 2.74296 0
2.79184 1.55819 0
0 1 0
      </DataArray>
    </Points>
    <Cells>
      <DataArray type="Int32" Name="connectivity" format="ascii">
0 1
1 2
2 3
3 4
4 5
5 6
0 12
0 11
1 11
1 10
2 10
2 9
3 9
3 8
4 8
4 7
5 7
7 6
11 12
11 10
10 9
8 9
7 8
      </DataArray>
      <DataArray type="Int32" Name="offsets" format="ascii">
2
4
6
8
10
12
14
16
18
20
22
24
26
28
30
32
34
36
38
40
42
44
46
      </DataArray>
      <DataArray type="UInt8" Name="types" format="ascii">
4
4
4
4
4
4
4
4
4
4
4
4
4
4
4
4
4
4
4
4
4
4
4
      </DataArray>
    </Cells>
    <PointData>
      <DataArray type="Float64" NumberOfComponents="3" Name="Displacement" format="ascii">
0 0 0
0.0465023 0.60346 0
-0.138605 1.85373 0
-0.577218 3.52071 0
-1.22536 5.43637 0
-2.00731 7.47276 0
-2.59442 8.01674 0
-2.67024 7.21901 0
-1.8578 5.2068 0
-1.13925 3.34201 0
-0.579417 1.74296 0
-0.208156 0.558186 0
0 0 0
      </DataArray> 
    </PointData>
    <CellData>
    </CellData>
  </Piece>
  </UnstructuredGrid>
</VTKFile>
