<?xml version="1.0"?>
<VTKFile type="UnstructuredGrid">
  <UnstructuredGrid>
  <Piece NumberOfPoints="13"  NumberOfCells="23">
    <Points>
      <DataArray type="Float64" NumberOfComponents="3" format="ascii">
0 0 0
3.04609 0.316826 0
6.01237 1.01856 0
8.8836 1.99889 0
11.6701 3.16317 0
14.398 4.42561 0
15.1043 5.29539 0
13.9886 5.33693 0
11.2832 4.0833 0
8.54663 2.93785 0
5.75517 1.98151 0
2.90111 1.30167 0
0 1 0
      </DataArray>
    </Points>
    <Cells>
      <DataArray type="Int32" Name="connectivity" format="ascii">
0 1
1 2
2 3
3 4
4 5
5 6
0 12
0 11
1 11
1 10
2 10
2 9
3 9
3 8
4 8
4 7
5 7
7 6
11 12
11 10
10 9
8 9
7 8
      </DataArray>
      <DataArray type="Int32" Name="offsets" format="ascii">
2
4
6
8
10
12
14
16
18
20
22
24
26
28
30
32
34
36
38
40
42
44
46
      </DataArray>
      <DataArray type="UInt8" Name="types" format="ascii">
4
4
4
4
4
4
4
4
4
4
4
4
4
4
4
4
4
4
4
4
4
4
4
      </DataArray>
    </Cells>
    <PointData>
      <DataArray type="Float64" NumberOfComponents="3" Name="Displacement" format="ascii">
0 0 0
0.0460906 0.316826 0
0.0123727 1.01856 0
-0.116399 1.99889 0
-0.329935 3.16317 0
-0.602042 4.42561 0
-0.895684 4.79539 0
-1.0114 4.33693 0
-0.716794 3.0833 0
-0.453366 1.93785 0
-0.244825 0.981514 0
-0.0988916 0.301668 0
0 0 0
      </DataArray> 
    </PointData>
    <CellData>
    </CellData>
  </Piece>
  </UnstructuredGrid>
</VTKFile>
