<?xml version="1.0"?>
<VTKFile type="UnstructuredGrid">
  <UnstructuredGrid>
  <Piece NumberOfPoints="30"  NumberOfCells="85">
    <Points>
      <DataArray type="Float64" NumberOfComponents="3" format="ascii">
0 0 0
4 0 0
8 0 0
12 0 0
16 0 0
16.003 2.99463 0.000178586
12.0021 2.99493 0.000145234
8 2.99387 0.000198306
3.99792 2.99493 0.000145234
-0.00300015 2.99463 0.000178586
0.00183184 -0.0586549 8
4.00206 -0.0546841 8
8 -0.0614819 8
11.9979 -0.0546841 8
15.9982 -0.0586549 8
15.9975 2.9412 8
11.9957 2.94645 8
8 2.93802 8
4.00432 2.94645 8
0.00248132 2.9412 8
0 0 16
4 0 16
8 0 16
12 0 16
16 0 16
16.003 2.99463 15.9998
12.0021 2.99493 15.9999
8 2.99387 15.9998
3.99792 2.99493 15.9999
-0.00300015 2.99463 15.9998
      </DataArray>
    </Points>
    <Cells>
      <DataArray type="Int32" Name="connectivity" format="ascii">
0 1
1 2
2 3
3 4
4 5
5 6
6 7
7 8
8 9
9 0
8 1
7 2
6 3
10 11
11 12
12 13
13 14
14 15
15 16
16 17
17 18
18 19
19 10
18 11
17 12
16 13
20 21
21 22
22 23
23 24
24 25
25 26
26 27
27 28
28 29
20 29
28 21
22 27
23 26
20 10
10 0
29 19
19 9
21 11
28 18
11 1
18 8
22 12
27 17
12 2
17 7
23 13
26 16
13 3
16 6
24 14
25 15
15 5
14 4
25 23
29 21
19 11
9 1
15 13
5 3
8 2
6 2
18 12
16 12
28 22
26 22
19 20
19 0
21 18
18 1
22 17
17 2
23 16
16 3
15 24
15 4
20 18
18 0
24 16
16 4
      </DataArray>
      <DataArray type="Int32" Name="offsets" format="ascii">
2
4
6
8
10
12
14
16
18
20
22
24
26
28
30
32
34
36
38
40
42
44
46
48
50
52
54
56
58
60
62
64
66
68
70
72
74
76
78
80
82
84
86
88
90
92
94
96
98
100
102
104
106
108
110
112
114
116
118
120
122
124
126
128
130
132
134
136
138
140
142
144
146
148
150
152
154
156
158
160
162
164
166
168
170
      </DataArray>
      <DataArray type="UInt8" Name="types" format="ascii">
4
4
4
4
4
4
4
4
4
4
4
4
4
4
4
4
4
4
4
4
4
4
4
4
4
4
4
4
4
4
4
4
4
4
4
4
4
4
4
4
4
4
4
4
4
4
4
4
4
4
4
4
4
4
4
4
4
4
4
4
4
4
4
4
4
4
4
4
4
4
4
4
4
4
4
4
4
4
4
4
4
4
4
4
4
      </DataArray>
    </Cells>
    <PointData>
      <DataArray type="Float64" NumberOfComponents="3" Name="Displacement" format="ascii">
0 0 0
0 0 0
0 0 0
0 0 0
0 0 0
0.00300015 -0.00537195 0.000178586
0.0020833 -0.00506521 0.000145234
-2.39808e-14 -0.00612985 0.000198306
-0.0020833 -0.00506521 0.000145234
-0.00300015 -0.00537195 0.000178586
0.00183184 -0.0586549 0
0.00206325 -0.0546841 0
2.84217e-14 -0.0614819 0
-0.00206325 -0.0546841 0
-0.00183184 -0.0586549 0
-0.00248132 -0.0588041 -2.75335e-14
-0.00432176 -0.0535489 5.32907e-15
2.4869e-14 -0.0619795 8.88178e-15
0.00432176 -0.0535489 7.10543e-15
0.00248132 -0.0588041 -2.39808e-14
0 0 0
0 0 0
0 0 0
0 0 0
0 0 0
0.00300015 -0.00537195 -0.000178586
0.0020833 -0.00506521 -0.000145234
-1.24345e-14 -0.00612985 -0.000198306
-0.0020833 -0.00506521 -0.000145234
-0.00300015 -0.00537195 -0.000178586
      </DataArray> 
      <DataArray type="Float64" NumberOfComponents="3" Name="Velocity" format="ascii">
0 0 0
0 0 0
0 0 0
0 0 0
0 0 0
0.000255914 0.000613278 -1.56038e-06
0.000263464 4.10155e-05 -1.37998e-06
-1.15659e-14 0.000655626 -3.24543e-06
-0.000263464 4.10155e-05 -1.37998e-06
-0.000255914 0.000613278 -1.56038e-06
6.42764e-06 0.00013678 0
9.02779e-06 -5.1155e-05 0
8.89688e-15 6.09391e-05 0
-9.02779e-06 -5.1155e-05 0
-6.42764e-06 0.00013678 0
-3.03374e-06 -2.96329e-05 -9.78656e-15
-1.98718e-05 -1.40048e-05 3.55875e-15
1.60144e-14 -7.59108e-05 -1.77938e-15
1.98718e-05 -1.40048e-05 8.89688e-15
3.03374e-06 -2.96329e-05 -1.51247e-14
0 0 0
0 0 0
0 0 0
0 0 0
0 0 0
0.000255914 0.000613278 1.56038e-06
0.000263464 4.10155e-05 1.37998e-06
8.89688e-15 0.000655626 3.24543e-06
-0.000263464 4.10155e-05 1.37998e-06
-0.000255914 0.000613278 1.56038e-06
      </DataArray> 
      <DataArray type="Float64" NumberOfComponents="3" Name="Acceleration" format="ascii">
0 0 0
0 0 0
0 0 0
0 0 0
0 0 0
-0.000291029 -0.000306809 9.9298e-07
-0.000181028 -0.000341176 1.58449e-06
1.86517e-14 0.000162681 -9.15848e-07
0.000181028 -0.000341176 1.58449e-06
0.000291029 -0.000306809 9.9298e-07
0.000152105 -0.000129576 0
-0.000231324 8.28256e-05 0
-1.06581e-14 0.00023996 0
0.000231324 8.28256e-05 0
-0.000152105 -0.000129576 0
-1.8579e-05 6.6438e-05 8.88178e-16
-2.39239e-05 -1.6537e-05 1.77636e-15
6.42922e-28 -0.000120822 -1.77636e-15
2.39239e-05 -1.6537e-05 -7.55729e-28
1.8579e-05 6.6438e-05 4.44089e-15
0 0 0
0 0 0
0 0 0
0 0 0
0 0 0
-0.000291029 -0.000306809 -9.9298e-07
-0.000181028 -0.000341176 -1.58449e-06
1.24345e-14 0.000162681 9.15848e-07
0.000181028 -0.000341176 -1.58449e-06
0.000291029 -0.000306809 -9.9298e-07
      </DataArray> 
    </PointData>
    <CellData>
    </CellData>
  </Piece>
  </UnstructuredGrid>
</VTKFile>
