<?xml version="1.0"?>
<VTKFile type="UnstructuredGrid">
  <UnstructuredGrid>
  <Piece NumberOfPoints="30"  NumberOfCells="85">
    <Points>
      <DataArray type="Float64" NumberOfComponents="3" format="ascii">
0 0 0
4 0 0
8 0 0
12 0 0
16 0 0
15.9993 2.9927 0.000461607
11.9994 2.99425 0.000600453
8 2.99767 0.000856212
4.00064 2.99425 0.000600453
0.000718821 2.9927 0.000461607
0.00131789 -0.0871089 8
4.00228 -0.100434 8
8 -0.121417 8
11.9977 -0.100434 8
15.9987 -0.0871089 8
15.9874 2.91218 8
11.9872 2.90214 8
8 2.87909 8
4.01276 2.90214 8
0.0126021 2.91218 8
0 0 16
4 0 16
8 0 16
12 0 16
16 0 16
15.9993 2.9927 15.9995
11.9994 2.99425 15.9994
8 2.99767 15.9991
4.00064 2.99425 15.9994
0.000718821 2.9927 15.9995
      </DataArray>
    </Points>
    <Cells>
      <DataArray type="Int32" Name="connectivity" format="ascii">
0 1
1 2
2 3
3 4
4 5
5 6
6 7
7 8
8 9
9 0
8 1
7 2
6 3
10 11
11 12
12 13
13 14
14 15
15 16
16 17
17 18
18 19
19 10
18 11
17 12
16 13
20 21
21 22
22 23
23 24
24 25
25 26
26 27
27 28
28 29
20 29
28 21
22 27
23 26
20 10
10 0
29 19
19 9
21 11
28 18
11 1
18 8
22 12
27 17
12 2
17 7
23 13
26 16
13 3
16 6
24 14
25 15
15 5
14 4
25 23
29 21
19 11
9 1
15 13
5 3
8 2
6 2
18 12
16 12
28 22
26 22
19 20
19 0
21 18
18 1
22 17
17 2
23 16
16 3
15 24
15 4
20 18
18 0
24 16
16 4
      </DataArray>
      <DataArray type="Int32" Name="offsets" format="ascii">
2
4
6
8
10
12
14
16
18
20
22
24
26
28
30
32
34
36
38
40
42
44
46
48
50
52
54
56
58
60
62
64
66
68
70
72
74
76
78
80
82
84
86
88
90
92
94
96
98
100
102
104
106
108
110
112
114
116
118
120
122
124
126
128
130
132
134
136
138
140
142
144
146
148
150
152
154
156
158
160
162
164
166
168
170
      </DataArray>
      <DataArray type="UInt8" Name="types" format="ascii">
4
4
4
4
4
4
4
4
4
4
4
4
4
4
4
4
4
4
4
4
4
4
4
4
4
4
4
4
4
4
4
4
4
4
4
4
4
4
4
4
4
4
4
4
4
4
4
4
4
4
4
4
4
4
4
4
4
4
4
4
4
4
4
4
4
4
4
4
4
4
4
4
4
4
4
4
4
4
4
4
4
4
4
4
4
      </DataArray>
    </Cells>
    <PointData>
      <DataArray type="Float64" NumberOfComponents="3" Name="Displacement" format="ascii">
0 0 0
0 0 0
0 0 0
0 0 0
0 0 0
-0.000718821 -0.00729799 0.000461607
-0.000643138 -0.00575387 0.000600453
1.77636e-15 -0.0023325 0.000856212
0.000643138 -0.00575387 0.000600453
0.000718821 -0.00729799 0.000461607
0.00131789 -0.0871089 0
0.00228381 -0.100434 0
-7.10543e-15 -0.121417 0
-0.00228381 -0.100434 0
-0.00131789 -0.0871089 0
-0.0126021 -0.0878153 -1.15463e-14
-0.0127573 -0.0978617 1.06581e-14
-1.42109e-14 -0.120913 -6.21725e-15
0.0127573 -0.0978617 8.88178e-15
0.0126021 -0.0878153 -1.06581e-14
0 0 0
0 0 0
0 0 0
0 0 0
0 0 0
-0.000718821 -0.00729799 -0.000461607
-0.000643138 -0.00575387 -0.000600453
5.32907e-15 -0.0023325 -0.000856212
0.000643138 -0.00575387 -0.000600453
0.000718821 -0.00729799 -0.000461607
      </DataArray> 
      <DataArray type="Float64" NumberOfComponents="3" Name="Velocity" format="ascii">
0 0 0
0 0 0
0 0 0
0 0 0
0 0 0
0.00207501 -0.0050568 1.74053e-05
0.000158729 0.000535206 -3.64057e-05
-1.77938e-15 0.00391735 -8.51539e-05
-0.000158729 0.000535206 -3.64057e-05
-0.00207501 -0.0050568 1.74053e-05
-3.03896e-05 0.000694178 0
1.5297e-05 0.000734736 0
3.55875e-15 0.00232369 0
-1.5297e-05 0.000734736 0
3.03896e-05 0.000694178 0
0.000845399 0.000199632 -2.66906e-15
0.000237701 0.000745282 -3.55875e-15
7.1175e-15 -0.000422437 2.66906e-15
-0.000237701 0.000745282 -3.55875e-15
-0.000845399 0.000199632 -1.77938e-15
0 0 0
0 0 0
0 0 0
0 0 0
0 0 0
0.00207501 -0.0050568 -1.74053e-05
0.000158729 0.000535206 3.64057e-05
-3.55875e-15 0.00391735 8.51539e-05
-0.000158729 0.000535206 3.64057e-05
-0.00207501 -0.0050568 -1.74053e-05
      </DataArray> 
      <DataArray type="Float64" NumberOfComponents="3" Name="Acceleration" format="ascii">
0 0 0
0 0 0
0 0 0
0 0 0
0 0 0
0.00241305 0.0031366 -1.65862e-05
0.00193669 0.00100304 -1.76026e-05
-1.77636e-15 -0.003844 1.0392e-05
-0.00193669 0.00100304 -1.76026e-05
-0.00241305 0.0031366 -1.65862e-05
0.000642606 -0.000600007 0
-0.00130521 0.00147773 0
-3.55271e-15 0.00181859 0
0.00130521 0.00147773 0
-0.000642606 -0.000600007 0
6.17561e-05 0.000991803 2.66454e-15
0.000246168 0.000890771 -3.55271e-15
3.55271e-15 0.0014906 8.88178e-16
-0.000246168 0.000890771 -1.77636e-15
-6.17561e-05 0.000991803 -7.88861e-31
0 0 0
0 0 0
0 0 0
0 0 0
0 0 0
0.00241305 0.0031366 1.65862e-05
0.00193669 0.00100304 1.76026e-05
-5.32907e-15 -0.003844 -1.0392e-05
-0.00193669 0.00100304 1.76026e-05
-0.00241305 0.0031366 1.65862e-05
      </DataArray> 
    </PointData>
    <CellData>
    </CellData>
  </Piece>
  </UnstructuredGrid>
</VTKFile>
