<?xml version="1.0"?>
<VTKFile type="UnstructuredGrid">
  <UnstructuredGrid>
  <Piece NumberOfPoints="30"  NumberOfCells="85">
    <Points>
      <DataArray type="Float64" NumberOfComponents="3" format="ascii">
0 0 0
4 0 0
8 0 0
12 0 0
16 0 0
16.0026 2.99478 0.000173241
12.0019 2.99468 0.000143204
8 2.99423 0.000189201
3.9981 2.99468 0.000143204
-0.00261741 2.99478 0.000173241
0.0019059 -0.0580919 8
4.0019 -0.0537608 8
8 -0.0601317 8
11.9981 -0.0537608 8
15.9981 -0.0580919 8
15.9977 2.94196 8
11.9958 2.94727 8
8 2.93887 8
4.00423 2.94727 8
0.00233923 2.94196 8
0 0 16
4 0 16
8 0 16
12 0 16
16 0 16
16.0026 2.99478 15.9998
12.0019 2.99468 15.9999
8 2.99423 15.9998
3.9981 2.99468 15.9999
-0.00261741 2.99478 15.9998
      </DataArray>
    </Points>
    <Cells>
      <DataArray type="Int32" Name="connectivity" format="ascii">
0 1
1 2
2 3
3 4
4 5
5 6
6 7
7 8
8 9
9 0
8 1
7 2
6 3
10 11
11 12
12 13
13 14
14 15
15 16
16 17
17 18
18 19
19 10
18 11
17 12
16 13
20 21
21 22
22 23
23 24
24 25
25 26
26 27
27 28
28 29
20 29
28 21
22 27
23 26
20 10
10 0
29 19
19 9
21 11
28 18
11 1
18 8
22 12
27 17
12 2
17 7
23 13
26 16
13 3
16 6
24 14
25 15
15 5
14 4
25 23
29 21
19 11
9 1
15 13
5 3
8 2
6 2
18 12
16 12
28 22
26 22
19 20
19 0
21 18
18 1
22 17
17 2
23 16
16 3
15 24
15 4
20 18
18 0
24 16
16 4
      </DataArray>
      <DataArray type="Int32" Name="offsets" format="ascii">
2
4
6
8
10
12
14
16
18
20
22
24
26
28
30
32
34
36
38
40
42
44
46
48
50
52
54
56
58
60
62
64
66
68
70
72
74
76
78
80
82
84
86
88
90
92
94
96
98
100
102
104
106
108
110
112
114
116
118
120
122
124
126
128
130
132
134
136
138
140
142
144
146
148
150
152
154
156
158
160
162
164
166
168
170
      </DataArray>
      <DataArray type="UInt8" Name="types" format="ascii">
4
4
4
4
4
4
4
4
4
4
4
4
4
4
4
4
4
4
4
4
4
4
4
4
4
4
4
4
4
4
4
4
4
4
4
4
4
4
4
4
4
4
4
4
4
4
4
4
4
4
4
4
4
4
4
4
4
4
4
4
4
4
4
4
4
4
4
4
4
4
4
4
4
4
4
4
4
4
4
4
4
4
4
4
4
      </DataArray>
    </Cells>
    <PointData>
      <DataArray type="Float64" NumberOfComponents="3" Name="Displacement" format="ascii">
0 0 0
0 0 0
0 0 0
0 0 0
0 0 0
0.00261741 -0.0052223 0.000173241
0.00190002 -0.0053196 0.000143204
-1.86517e-14 -0.00577281 0.000189201
-0.00190002 -0.0053196 0.000143204
-0.00261741 -0.0052223 0.000173241
0.0019059 -0.0580919 0
0.0018965 -0.0537608 0
-2.22045e-14 -0.0601317 0
-0.0018965 -0.0537608 0
-0.0019059 -0.0580919 0
-0.00233923 -0.0580393 -8.88178e-16
-0.00423028 -0.0527271 1.42109e-14
-3.01981e-14 -0.0611274 -1.68754e-14
0.00423028 -0.0527271 -1.95399e-14
0.00233923 -0.0580393 1.59872e-14
0 0 0
0 0 0
0 0 0
0 0 0
0 0 0
0.00261741 -0.0052223 -0.000173241
0.00190002 -0.0053196 -0.000143204
1.42109e-14 -0.00577281 -0.000189201
-0.00190002 -0.0053196 -0.000143204
-0.00261741 -0.0052223 -0.000173241
      </DataArray> 
      <DataArray type="Float64" NumberOfComponents="3" Name="Velocity" format="ascii">
0 0 0
0 0 0
0 0 0
0 0 0
0 0 0
2.9907e-06 -0.000326347 1.2181e-06
-8.66001e-05 2.63203e-05 8.5485e-07
1.86834e-14 -0.000274534 1.23264e-06
8.66001e-05 2.63203e-05 8.5485e-07
-2.9907e-06 -0.000326347 1.2181e-06
-7.19058e-05 6.21696e-05 0
0.000101574 -5.13259e-05 0
8.89688e-16 2.79926e-05 0
-0.000101574 -5.13259e-05 0
7.19058e-05 6.21696e-05 0
1.95117e-05 -4.6112e-05 1.15659e-14
-1.26306e-05 7.43616e-06 -3.55875e-15
3.55875e-15 -2.19537e-05 2.04628e-14
1.26306e-05 7.43616e-06 1.24556e-14
-1.95117e-05 -4.6112e-05 1.24556e-14
0 0 0
0 0 0
0 0 0
0 0 0
0 0 0
2.9907e-06 -0.000326347 -1.2181e-06
-8.66001e-05 2.63203e-05 -8.5485e-07
5.33813e-15 -0.000274534 -1.23264e-06
8.66001e-05 2.63203e-05 -8.5485e-07
-2.9907e-06 -0.000326347 -1.2181e-06
      </DataArray> 
      <DataArray type="Float64" NumberOfComponents="3" Name="Acceleration" format="ascii">
0 0 0
0 0 0
0 0 0
0 0 0
0 0 0
-3.6036e-05 -0.000369937 1.3024e-06
-6.86493e-05 -4.0262e-05 1.24426e-07
2.39808e-14 -0.000204032 1.2503e-06
6.86493e-05 -4.0262e-05 1.24426e-07
3.6036e-05 -0.000369937 1.3024e-06
-4.04946e-06 4.62334e-05 0
-7.26755e-06 -6.54642e-06 0
-8.88178e-16 -0.000124133 0
7.26755e-06 -6.54642e-06 0
4.04946e-06 4.62334e-05 0
-1.10837e-05 -3.22741e-05 6.21725e-15
1.90338e-05 6.80924e-06 -3.55271e-15
5.32907e-15 7.33341e-05 -6.21725e-15
-1.90338e-05 6.80924e-06 5.32907e-15
1.10837e-05 -3.22741e-05 -8.88178e-15
0 0 0
0 0 0
0 0 0
0 0 0
0 0 0
-3.6036e-05 -0.000369937 -1.3024e-06
-6.86493e-05 -4.0262e-05 -1.24426e-07
-1.42109e-14 -0.000204032 -1.2503e-06
6.86493e-05 -4.0262e-05 -1.24426e-07
3.6036e-05 -0.000369937 -1.3024e-06
      </DataArray> 
    </PointData>
    <CellData>
    </CellData>
  </Piece>
  </UnstructuredGrid>
</VTKFile>
