<?xml version="1.0"?>
<VTKFile type="UnstructuredGrid">
  <UnstructuredGrid>
  <Piece NumberOfPoints="30"  NumberOfCells="85">
    <Points>
      <DataArray type="Float64" NumberOfComponents="3" format="ascii">
0 0 0
4 0 0
8 0 0
12 0 0
16 0 0
16.0025 2.99506 0.000176095
12.0019 2.99461 0.000143284
8 2.99366 0.000195761
3.99806 2.99461 0.000143284
-0.00251248 2.99506 0.000176095
0.00183149 -0.0585257 8
4.00194 -0.0542917 8
8 -0.0608492 8
11.9981 -0.0542917 8
15.9982 -0.0585257 8
15.9976 2.9416 8
11.9957 2.94685 8
8 2.93854 8
4.00426 2.94685 8
0.00240434 2.9416 8
0 0 16
4 0 16
8 0 16
12 0 16
16 0 16
16.0025 2.99506 15.9998
12.0019 2.99461 15.9999
8 2.99366 15.9998
3.99806 2.99461 15.9999
-0.00251248 2.99506 15.9998
      </DataArray>
    </Points>
    <Cells>
      <DataArray type="Int32" Name="connectivity" format="ascii">
0 1
1 2
2 3
3 4
4 5
5 6
6 7
7 8
8 9
9 0
8 1
7 2
6 3
10 11
11 12
12 13
13 14
14 15
15 16
16 17
17 18
18 19
19 10
18 11
17 12
16 13
20 21
21 22
22 23
23 24
24 25
25 26
26 27
27 28
28 29
20 29
28 21
22 27
23 26
20 10
10 0
29 19
19 9
21 11
28 18
11 1
18 8
22 12
27 17
12 2
17 7
23 13
26 16
13 3
16 6
24 14
25 15
15 5
14 4
25 23
29 21
19 11
9 1
15 13
5 3
8 2
6 2
18 12
16 12
28 22
26 22
19 20
19 0
21 18
18 1
22 17
17 2
23 16
16 3
15 24
15 4
20 18
18 0
24 16
16 4
      </DataArray>
      <DataArray type="Int32" Name="offsets" format="ascii">
2
4
6
8
10
12
14
16
18
20
22
24
26
28
30
32
34
36
38
40
42
44
46
48
50
52
54
56
58
60
62
64
66
68
70
72
74
76
78
80
82
84
86
88
90
92
94
96
98
100
102
104
106
108
110
112
114
116
118
120
122
124
126
128
130
132
134
136
138
140
142
144
146
148
150
152
154
156
158
160
162
164
166
168
170
      </DataArray>
      <DataArray type="UInt8" Name="types" format="ascii">
4
4
4
4
4
4
4
4
4
4
4
4
4
4
4
4
4
4
4
4
4
4
4
4
4
4
4
4
4
4
4
4
4
4
4
4
4
4
4
4
4
4
4
4
4
4
4
4
4
4
4
4
4
4
4
4
4
4
4
4
4
4
4
4
4
4
4
4
4
4
4
4
4
4
4
4
4
4
4
4
4
4
4
4
4
      </DataArray>
    </Cells>
    <PointData>
      <DataArray type="Float64" NumberOfComponents="3" Name="Displacement" format="ascii">
0 0 0
0 0 0
0 0 0
0 0 0
0 0 0
0.00251248 -0.00494018 0.000176095
0.00193736 -0.00539193 0.000143284
-1.15463e-14 -0.00633704 0.000195761
-0.00193736 -0.00539193 0.000143284
-0.00251248 -0.00494018 0.000176095
0.00183149 -0.0585257 0
0.00194421 -0.0542917 0
4.44089e-14 -0.0608492 0
-0.00194421 -0.0542917 0
-0.00183149 -0.0585257 0
-0.00240434 -0.0584042 0
-0.00426339 -0.0531545 7.10543e-15
-4.44089e-15 -0.0614649 -8.88178e-16
0.00426339 -0.0531545 1.42109e-14
0.00240434 -0.0584042 -2.39808e-14
0 0 0
0 0 0
0 0 0
0 0 0
0 0 0
0.00251248 -0.00494018 -0.000176095
0.00193736 -0.00539193 -0.000143284
1.06581e-14 -0.00633704 -0.000195761
-0.00193736 -0.00539193 -0.000143284
-0.00251248 -0.00494018 -0.000176095
      </DataArray> 
      <DataArray type="Float64" NumberOfComponents="3" Name="Velocity" format="ascii">
0 0 0
0 0 0
0 0 0
0 0 0
0 0 0
-0.000151163 -0.000381564 1.25711e-06
-0.0001811 -5.18851e-05 8.20838e-07
4.44844e-15 -0.00044749 1.29147e-06
0.0001811 -5.18851e-05 8.20839e-07
0.000151163 -0.000381564 1.25711e-06
4.36783e-05 -0.000245426 0
-7.57106e-05 1.26241e-05 0
7.1175e-15 4.71535e-05 0
7.57106e-05 1.26241e-05 0
-4.36783e-05 -0.000245426 0
2.96227e-06 4.51973e-06 -3.55875e-15
-2.22811e-05 -0.000104643 3.55875e-15
2.66906e-15 -0.000127727 4.44844e-15
2.22811e-05 -0.000104643 -1.24556e-14
-2.96227e-06 4.51973e-06 -6.22781e-15
0 0 0
0 0 0
0 0 0
0 0 0
0 0 0
-0.000151163 -0.000381564 -1.25711e-06
-0.0001811 -5.18851e-05 -8.20839e-07
5.33813e-15 -0.00044749 -1.29147e-06
0.0001811 -5.18851e-05 -8.20838e-07
0.000151163 -0.000381564 -1.25711e-06
      </DataArray> 
      <DataArray type="Float64" NumberOfComponents="3" Name="Acceleration" format="ascii">
0 0 0
0 0 0
0 0 0
0 0 0
0 0 0
3.06778e-05 -0.000680646 1.82147e-06
-0.000174787 2.41797e-05 7.81886e-07
-4.44089e-15 0.000388097 -1.91169e-06
0.000174787 2.41797e-05 7.81886e-07
-3.06778e-05 -0.000680646 1.82147e-06
7.46134e-05 0.000108814 0
-0.000110857 7.68919e-05 0
-1.77636e-15 0.000138694 0
0.000110857 7.68919e-05 0
-7.46134e-05 0.000108814 0
-1.85379e-05 -6.37303e-05 -1.85382e-28
-1.10449e-05 -2.13159e-05 -3.55271e-15
6.21725e-15 -8.56639e-05 -8.88178e-16
1.10449e-05 -2.13159e-05 -7.10543e-15
1.85379e-05 -6.37303e-05 4.44089e-15
0 0 0
0 0 0
0 0 0
0 0 0
0 0 0
3.06778e-05 -0.000680646 -1.82147e-06
-0.000174787 2.41797e-05 -7.81886e-07
-7.10543e-15 0.000388097 1.91169e-06
0.000174787 2.41797e-05 -7.81886e-07
-3.06778e-05 -0.000680646 -1.82147e-06
      </DataArray> 
    </PointData>
    <CellData>
    </CellData>
  </Piece>
  </UnstructuredGrid>
</VTKFile>
