<?xml version="1.0"?>
<VTKFile type="UnstructuredGrid">
  <UnstructuredGrid>
  <Piece NumberOfPoints="30"  NumberOfCells="85">
    <Points>
      <DataArray type="Float64" NumberOfComponents="3" format="ascii">
0 0 0
4 0 0
8 0 0
12 0 0
16 0 0
16.0029 2.99412 0.000130194
12.0021 2.99434 9.23939e-05
8 2.99265 0.000154098
3.99789 2.99434 9.23939e-05
-0.00293509 2.99412 0.000130194
0.00230108 -0.053718 8
4.00214 -0.0479708 8
8 -0.0533079 8
11.9979 -0.0479708 8
15.9977 -0.053718 8
15.9986 2.94681 8
11.9966 2.95321 8
8 2.9461 8
4.00337 2.95321 8
0.00137151 2.94681 8
0 0 16
4 0 16
8 0 16
12 0 16
16 0 16
16.0029 2.99412 15.9999
12.0021 2.99434 15.9999
8 2.99265 15.9998
3.99789 2.99434 15.9999
-0.00293509 2.99412 15.9999
      </DataArray>
    </Points>
    <Cells>
      <DataArray type="Int32" Name="connectivity" format="ascii">
0 1
1 2
2 3
3 4
4 5
5 6
6 7
7 8
8 9
9 0
8 1
7 2
6 3
10 11
11 12
12 13
13 14
14 15
15 16
16 17
17 18
18 19
19 10
18 11
17 12
16 13
20 21
21 22
22 23
23 24
24 25
25 26
26 27
27 28
28 29
20 29
28 21
22 27
23 26
20 10
10 0
29 19
19 9
21 11
28 18
11 1
18 8
22 12
27 17
12 2
17 7
23 13
26 16
13 3
16 6
24 14
25 15
15 5
14 4
25 23
29 21
19 11
9 1
15 13
5 3
8 2
6 2
18 12
16 12
28 22
26 22
19 20
19 0
21 18
18 1
22 17
17 2
23 16
16 3
15 24
15 4
20 18
18 0
24 16
16 4
      </DataArray>
      <DataArray type="Int32" Name="offsets" format="ascii">
2
4
6
8
10
12
14
16
18
20
22
24
26
28
30
32
34
36
38
40
42
44
46
48
50
52
54
56
58
60
62
64
66
68
70
72
74
76
78
80
82
84
86
88
90
92
94
96
98
100
102
104
106
108
110
112
114
116
118
120
122
124
126
128
130
132
134
136
138
140
142
144
146
148
150
152
154
156
158
160
162
164
166
168
170
      </DataArray>
      <DataArray type="UInt8" Name="types" format="ascii">
4
4
4
4
4
4
4
4
4
4
4
4
4
4
4
4
4
4
4
4
4
4
4
4
4
4
4
4
4
4
4
4
4
4
4
4
4
4
4
4
4
4
4
4
4
4
4
4
4
4
4
4
4
4
4
4
4
4
4
4
4
4
4
4
4
4
4
4
4
4
4
4
4
4
4
4
4
4
4
4
4
4
4
4
4
      </DataArray>
    </Cells>
    <PointData>
      <DataArray type="Float64" NumberOfComponents="3" Name="Displacement" format="ascii">
0 0 0
0 0 0
0 0 0
0 0 0
0 0 0
0.00293509 -0.00587687 0.000130194
0.00210663 -0.00565635 9.23939e-05
1.77636e-15 -0.00735105 0.000154098
-0.00210663 -0.00565635 9.23939e-05
-0.00293509 -0.00587687 0.000130194
0.00230108 -0.053718 0
0.00214118 -0.0479708 0
7.10543e-15 -0.0533079 0
-0.00214118 -0.0479708 0
-0.00230108 -0.053718 0
-0.00137151 -0.0531861 5.32907e-15
-0.00336793 -0.046793 1.06581e-14
2.13163e-14 -0.0538994 3.01981e-14
0.00336793 -0.046793 -1.59872e-14
0.00137151 -0.0531861 8.88178e-15
0 0 0
0 0 0
0 0 0
0 0 0
0 0 0
0.00293509 -0.00587687 -0.000130194
0.00210663 -0.00565635 -9.23939e-05
0 -0.00735105 -0.000154098
-0.00210663 -0.00565635 -9.23939e-05
-0.00293509 -0.00587687 -0.000130194
      </DataArray> 
      <DataArray type="Float64" NumberOfComponents="3" Name="Velocity" format="ascii">
0 0 0
0 0 0
0 0 0
0 0 0
0 0 0
-0.00142918 -0.00130258 -8.82922e-07
-0.000991228 -0.00112292 8.21391e-06
-1.77938e-14 0.00140448 -5.61472e-06
0.000991228 -0.00112292 8.21391e-06
0.00142918 -0.00130258 -8.82922e-07
-0.000234242 0.000466983 0
0.000110327 9.91997e-05 0
2.66906e-14 -0.000627737 0
-0.000110327 9.91997e-05 0
0.000234242 0.000466983 0
-0.000128842 0.000177177 1.77938e-15
3.60362e-05 0.0001212 1.77938e-15
-9.20223e-31 8.69446e-05 1.77938e-15
-3.60362e-05 0.0001212 -5.33813e-15
0.000128842 0.000177177 1.77938e-15
0 0 0
0 0 0
0 0 0
0 0 0
0 0 0
-0.00142918 -0.00130258 8.82922e-07
-0.000991228 -0.00112292 -8.21391e-06
-1.06763e-14 0.00140448 5.61472e-06
0.000991228 -0.00112292 -8.21391e-06
0.00142918 -0.00130258 8.82922e-07
      </DataArray> 
      <DataArray type="Float64" NumberOfComponents="3" Name="Acceleration" format="ascii">
0 0 0
0 0 0
0 0 0
0 0 0
0 0 0
-4.05598e-05 0.000337939 4.34345e-06
-0.000106424 0.000258234 4.88398e-06
-1.24345e-14 0.00143408 -6.98086e-06
0.000106424 0.000258234 4.88398e-06
4.05598e-05 0.000337939 4.34345e-06
-9.98902e-05 0.000459682 0
-0.000175449 0.000173857 0
3.55271e-15 0.000159408 0
0.000175449 0.000173857 0
9.98902e-05 0.000459682 0
-0.000131677 -0.000487955 -8.88178e-15
-4.97145e-05 -0.000282717 -3.55271e-15
-3.55271e-15 -0.000376589 -1.24345e-14
4.97145e-05 -0.000282717 8.88178e-15
0.000131677 -0.000487955 -5.32907e-15
0 0 0
0 0 0
0 0 0
0 0 0
0 0 0
-4.05598e-05 0.000337939 -4.34345e-06
-0.000106424 0.000258234 -4.88398e-06
-7.10543e-15 0.00143408 6.98086e-06
0.000106424 0.000258234 -4.88398e-06
4.05598e-05 0.000337939 -4.34345e-06
      </DataArray> 
    </PointData>
    <CellData>
    </CellData>
  </Piece>
  </UnstructuredGrid>
</VTKFile>
