<?xml version="1.0"?>
<VTKFile type="UnstructuredGrid">
  <UnstructuredGrid>
  <Piece NumberOfPoints="30"  NumberOfCells="85">
    <Points>
      <DataArray type="Float64" NumberOfComponents="3" format="ascii">
0 0 0
4 0 0
8 0 0
12 0 0
16 0 0
16.0011 2.99656 7.13238e-05
12.0013 2.99473 7.81247e-05
8 2.99465 0.000104518
3.99874 2.99473 7.81247e-05
-0.00111365 2.99656 7.13238e-05
0.00226307 -0.0464059 8
4.00217 -0.043119 8
8 -0.0489527 8
11.9978 -0.043119 8
15.9977 -0.0464059 8
15.9981 2.95283 8
11.9964 2.95755 8
8 2.94959 8
4.00359 2.95755 8
0.00193764 2.95283 8
0 0 16
4 0 16
8 0 16
12 0 16
16 0 16
16.0011 2.99656 15.9999
12.0013 2.99473 15.9999
8 2.99465 15.9999
3.99874 2.99473 15.9999
-0.00111365 2.99656 15.9999
      </DataArray>
    </Points>
    <Cells>
      <DataArray type="Int32" Name="connectivity" format="ascii">
0 1
1 2
2 3
3 4
4 5
5 6
6 7
7 8
8 9
9 0
8 1
7 2
6 3
10 11
11 12
12 13
13 14
14 15
15 16
16 17
17 18
18 19
19 10
18 11
17 12
16 13
20 21
21 22
22 23
23 24
24 25
25 26
26 27
27 28
28 29
20 29
28 21
22 27
23 26
20 10
10 0
29 19
19 9
21 11
28 18
11 1
18 8
22 12
27 17
12 2
17 7
23 13
26 16
13 3
16 6
24 14
25 15
15 5
14 4
25 23
29 21
19 11
9 1
15 13
5 3
8 2
6 2
18 12
16 12
28 22
26 22
19 20
19 0
21 18
18 1
22 17
17 2
23 16
16 3
15 24
15 4
20 18
18 0
24 16
16 4
      </DataArray>
      <DataArray type="Int32" Name="offsets" format="ascii">
2
4
6
8
10
12
14
16
18
20
22
24
26
28
30
32
34
36
38
40
42
44
46
48
50
52
54
56
58
60
62
64
66
68
70
72
74
76
78
80
82
84
86
88
90
92
94
96
98
100
102
104
106
108
110
112
114
116
118
120
122
124
126
128
130
132
134
136
138
140
142
144
146
148
150
152
154
156
158
160
162
164
166
168
170
      </DataArray>
      <DataArray type="UInt8" Name="types" format="ascii">
4
4
4
4
4
4
4
4
4
4
4
4
4
4
4
4
4
4
4
4
4
4
4
4
4
4
4
4
4
4
4
4
4
4
4
4
4
4
4
4
4
4
4
4
4
4
4
4
4
4
4
4
4
4
4
4
4
4
4
4
4
4
4
4
4
4
4
4
4
4
4
4
4
4
4
4
4
4
4
4
4
4
4
4
4
      </DataArray>
    </Cells>
    <PointData>
      <DataArray type="Float64" NumberOfComponents="3" Name="Displacement" format="ascii">
0 0 0
0 0 0
0 0 0
0 0 0
0 0 0
0.00111365 -0.00343586 7.13238e-05
0.00126488 -0.00527227 7.81247e-05
5.32907e-15 -0.00535376 0.000104518
-0.00126488 -0.00527227 7.81247e-05
-0.00111365 -0.00343586 7.13238e-05
0.00226307 -0.0464059 0
0.00217028 -0.043119 0
2.66454e-14 -0.0489527 0
-0.00217028 -0.043119 0
-0.00226307 -0.0464059 0
-0.00193764 -0.0471724 1.77636e-15
-0.00358786 -0.0424477 -2.66454e-15
8.88178e-15 -0.0504083 1.42109e-14
0.00358786 -0.0424477 7.10543e-15
0.00193764 -0.0471724 8.88178e-15
0 0 0
0 0 0
0 0 0
0 0 0
0 0 0
0.00111365 -0.00343586 -7.13238e-05
0.00126488 -0.00527227 -7.81247e-05
5.32907e-15 -0.00535376 -0.000104518
-0.00126488 -0.00527227 -7.81247e-05
-0.00111365 -0.00343586 -7.13238e-05
      </DataArray> 
      <DataArray type="Float64" NumberOfComponents="3" Name="Velocity" format="ascii">
0 0 0
0 0 0
0 0 0
0 0 0
0 0 0
-0.000393234 -0.0023081 -3.38247e-06
-0.000284057 -0.00181981 1.9543e-05
5.33813e-15 -0.00293247 -2.14548e-06
0.000284057 -0.00181981 1.9543e-05
0.000393234 -0.0023081 -3.38247e-06
-3.40089e-05 0.000597723 0
9.45173e-05 0.000986793 0
-1.24556e-14 0.00222134 0
-9.45173e-05 0.000986793 0
3.40089e-05 0.000597723 0
0.000119773 0.0017865 -1.06763e-14
-9.6821e-05 0.00109966 8.00719e-15
1.77938e-15 0.000812632 7.1175e-15
9.6821e-05 0.00109966 5.33813e-15
-0.000119773 0.0017865 -5.33813e-15
0 0 0
0 0 0
0 0 0
0 0 0
0 0 0
-0.000393234 -0.0023081 3.38247e-06
-0.000284057 -0.00181981 -1.9543e-05
5.33813e-15 -0.00293247 2.14548e-06
0.000284057 -0.00181981 -1.9543e-05
0.000393234 -0.0023081 3.38247e-06
      </DataArray> 
      <DataArray type="Float64" NumberOfComponents="3" Name="Acceleration" format="ascii">
0 0 0
0 0 0
0 0 0
0 0 0
0 0 0
0.000678931 -0.00208375 1.84236e-05
-2.13793e-05 7.93545e-05 3.01855e-06
-1.24345e-14 -0.000621751 9.0233e-06
2.13793e-05 7.93545e-05 3.01855e-06
-0.000678931 -0.00208375 1.84236e-05
-5.93134e-05 -0.000670635 0
-0.000298874 -9.04492e-05 0
-2.30926e-14 -0.000401241 0
0.000298874 -9.04492e-05 0
5.93134e-05 -0.000670635 0
-7.44615e-05 -0.000187 5.32907e-15
6.35177e-05 -0.000311587 8.88178e-16
5.32907e-15 -0.000121519 -3.55271e-15
-6.35177e-05 -0.000311587 8.67747e-30
7.44615e-05 -0.000187 -5.32907e-15
0 0 0
0 0 0
0 0 0
0 0 0
0 0 0
0.000678931 -0.00208375 -1.84236e-05
-2.13793e-05 7.93545e-05 -3.01855e-06
-1.77636e-15 -0.000621751 -9.0233e-06
2.13793e-05 7.93545e-05 -3.01855e-06
-0.000678931 -0.00208375 -1.84236e-05
      </DataArray> 
    </PointData>
    <CellData>
    </CellData>
  </Piece>
  </UnstructuredGrid>
</VTKFile>
