<?xml version="1.0"?>
<VTKFile type="UnstructuredGrid">
  <UnstructuredGrid>
  <Piece NumberOfPoints="30"  NumberOfCells="85">
    <Points>
      <DataArray type="Float64" NumberOfComponents="3" format="ascii">
0 0 0
4 0 0
8 0 0
12 0 0
16 0 0
16.0027 2.99478 0.000175655
12.0019 2.9949 0.000143389
8 2.99384 0.000193548
3.99808 2.9949 0.000143389
-0.00269215 2.99478 0.000175655
0.0019532 -0.0583228 8
4.0018 -0.0540082 8
8 -0.0604056 8
11.9982 -0.0540082 8
15.998 -0.0583228 8
15.9976 2.94176 8
11.9957 2.94703 8
8 2.9386 8
4.00427 2.94703 8
0.00237565 2.94176 8
0 0 16
4 0 16
8 0 16
12 0 16
16 0 16
16.0027 2.99478 15.9998
12.0019 2.9949 15.9999
8 2.99384 15.9998
3.99808 2.9949 15.9999
-0.00269215 2.99478 15.9998
      </DataArray>
    </Points>
    <Cells>
      <DataArray type="Int32" Name="connectivity" format="ascii">
0 1
1 2
2 3
3 4
4 5
5 6
6 7
7 8
8 9
9 0
8 1
7 2
6 3
10 11
11 12
12 13
13 14
14 15
15 16
16 17
17 18
18 19
19 10
18 11
17 12
16 13
20 21
21 22
22 23
23 24
24 25
25 26
26 27
27 28
28 29
20 29
28 21
22 27
23 26
20 10
10 0
29 19
19 9
21 11
28 18
11 1
18 8
22 12
27 17
12 2
17 7
23 13
26 16
13 3
16 6
24 14
25 15
15 5
14 4
25 23
29 21
19 11
9 1
15 13
5 3
8 2
6 2
18 12
16 12
28 22
26 22
19 20
19 0
21 18
18 1
22 17
17 2
23 16
16 3
15 24
15 4
20 18
18 0
24 16
16 4
      </DataArray>
      <DataArray type="Int32" Name="offsets" format="ascii">
2
4
6
8
10
12
14
16
18
20
22
24
26
28
30
32
34
36
38
40
42
44
46
48
50
52
54
56
58
60
62
64
66
68
70
72
74
76
78
80
82
84
86
88
90
92
94
96
98
100
102
104
106
108
110
112
114
116
118
120
122
124
126
128
130
132
134
136
138
140
142
144
146
148
150
152
154
156
158
160
162
164
166
168
170
      </DataArray>
      <DataArray type="UInt8" Name="types" format="ascii">
4
4
4
4
4
4
4
4
4
4
4
4
4
4
4
4
4
4
4
4
4
4
4
4
4
4
4
4
4
4
4
4
4
4
4
4
4
4
4
4
4
4
4
4
4
4
4
4
4
4
4
4
4
4
4
4
4
4
4
4
4
4
4
4
4
4
4
4
4
4
4
4
4
4
4
4
4
4
4
4
4
4
4
4
4
      </DataArray>
    </Cells>
    <PointData>
      <DataArray type="Float64" NumberOfComponents="3" Name="Displacement" format="ascii">
0 0 0
0 0 0
0 0 0
0 0 0
0 0 0
0.00269215 -0.00521997 0.000175655
0.00191878 -0.0051025 0.000143389
-1.86517e-14 -0.00615859 0.000193548
-0.00191878 -0.0051025 0.000143389
-0.00269215 -0.00521997 0.000175655
0.0019532 -0.0583228 0
0.00180025 -0.0540082 0
7.10543e-15 -0.0604056 0
-0.00180025 -0.0540082 0
-0.0019532 -0.0583228 0
-0.00237565 -0.0582425 1.06581e-14
-0.00427164 -0.0529675 -4.44089e-15
-1.5099e-14 -0.0614039 3.55271e-14
0.00427164 -0.0529675 -7.10543e-15
0.00237565 -0.0582425 3.55271e-15
0 0 0
0 0 0
0 0 0
0 0 0
0 0 0
0.00269215 -0.00521997 -0.000175655
0.00191878 -0.0051025 -0.000143389
5.32907e-15 -0.00615859 -0.000193548
-0.00191878 -0.0051025 -0.000143389
-0.00269215 -0.00521997 -0.000175655
      </DataArray> 
      <DataArray type="Float64" NumberOfComponents="3" Name="Velocity" format="ascii">
0 0 0
0 0 0
0 0 0
0 0 0
0 0 0
6.76045e-06 -0.00021645 9.50418e-07
-1.80041e-05 -1.69079e-06 -5.68206e-07
1.51247e-14 -0.000304465 1.47817e-06
1.80041e-05 -1.69079e-06 -5.68206e-07
-6.76045e-06 -0.00021645 9.50419e-07
2.68383e-06 4.31474e-05 0
-3.57434e-06 -1.13908e-05 0
1.06763e-14 -1.58232e-05 0
3.57434e-06 -1.13908e-05 0
-2.68383e-06 4.31474e-05 0
-1.10677e-05 -7.48696e-05 -8.89688e-15
1.29714e-06 -3.72763e-05 -2.66906e-15
-8.00719e-15 -2.53245e-05 -1.95731e-14
-1.29714e-06 -3.72763e-05 -1.77938e-15
1.10677e-05 -7.48696e-05 -1.4235e-14
0 0 0
0 0 0
0 0 0
0 0 0
0 0 0
6.76045e-06 -0.00021645 -9.50419e-07
-1.80041e-05 -1.69079e-06 5.68206e-07
1.24556e-14 -0.000304465 -1.47817e-06
1.80041e-05 -1.69079e-06 5.68206e-07
-6.76045e-06 -0.00021645 -9.50419e-07
      </DataArray> 
      <DataArray type="Float64" NumberOfComponents="3" Name="Acceleration" format="ascii">
0 0 0
0 0 0
0 0 0
0 0 0
0 0 0
-0.000107347 -0.000395171 9.3731e-07
-0.000104137 -0.000263634 9.35405e-07
1.68754e-14 0.000200354 -7.34582e-07
0.000104137 -0.000263634 9.35405e-07
0.000107347 -0.000395171 9.3731e-07
-9.82769e-05 7.04706e-05 0
0.000129845 -2.03847e-05 0
-7.10543e-15 -0.000130019 0
-0.000129845 -2.03847e-05 0
9.82769e-05 7.04706e-05 0
4.43266e-06 -2.43212e-05 -3.55271e-15
2.63186e-05 1.56117e-05 -8.88178e-16
9.76996e-15 8.45751e-05 -1.06581e-14
-2.63186e-05 1.56117e-05 7.10543e-15
-4.43266e-06 -2.43212e-05 3.55271e-15
0 0 0
0 0 0
0 0 0
0 0 0
0 0 0
-0.000107347 -0.000395171 -9.3731e-07
-0.000104137 -0.000263634 -9.35405e-07
-1.77636e-15 0.000200354 7.34582e-07
0.000104137 -0.000263634 -9.35405e-07
0.000107347 -0.000395171 -9.3731e-07
      </DataArray> 
    </PointData>
    <CellData>
    </CellData>
  </Piece>
  </UnstructuredGrid>
</VTKFile>
