<?xml version="1.0"?>
<VTKFile type="UnstructuredGrid">
  <UnstructuredGrid>
  <Piece NumberOfPoints="30"  NumberOfCells="85">
    <Points>
      <DataArray type="Float64" NumberOfComponents="3" format="ascii">
0 0 0
4 0 0
8 0 0
12 0 0
16 0 0
16.0026 2.99508 0.000175009
12.0019 2.99493 0.000149238
8 2.99346 0.000196998
3.99809 2.99493 0.000149238
-0.00262004 2.99508 0.000175009
0.00191566 -0.0585676 8
4.0019 -0.0543658 8
8 -0.0610583 8
11.9981 -0.0543658 8
15.9981 -0.0585676 8
15.9975 2.94136 8
11.9957 2.94665 8
8 2.93832 8
4.00426 2.94665 8
0.00245835 2.94136 8
0 0 16
4 0 16
8 0 16
12 0 16
16 0 16
16.0026 2.99508 15.9998
12.0019 2.99493 15.9999
8 2.99346 15.9998
3.99809 2.99493 15.9999
-0.00262004 2.99508 15.9998
      </DataArray>
    </Points>
    <Cells>
      <DataArray type="Int32" Name="connectivity" format="ascii">
0 1
1 2
2 3
3 4
4 5
5 6
6 7
7 8
8 9
9 0
8 1
7 2
6 3
10 11
11 12
12 13
13 14
14 15
15 16
16 17
17 18
18 19
19 10
18 11
17 12
16 13
20 21
21 22
22 23
23 24
24 25
25 26
26 27
27 28
28 29
20 29
28 21
22 27
23 26
20 10
10 0
29 19
19 9
21 11
28 18
11 1
18 8
22 12
27 17
12 2
17 7
23 13
26 16
13 3
16 6
24 14
25 15
15 5
14 4
25 23
29 21
19 11
9 1
15 13
5 3
8 2
6 2
18 12
16 12
28 22
26 22
19 20
19 0
21 18
18 1
22 17
17 2
23 16
16 3
15 24
15 4
20 18
18 0
24 16
16 4
      </DataArray>
      <DataArray type="Int32" Name="offsets" format="ascii">
2
4
6
8
10
12
14
16
18
20
22
24
26
28
30
32
34
36
38
40
42
44
46
48
50
52
54
56
58
60
62
64
66
68
70
72
74
76
78
80
82
84
86
88
90
92
94
96
98
100
102
104
106
108
110
112
114
116
118
120
122
124
126
128
130
132
134
136
138
140
142
144
146
148
150
152
154
156
158
160
162
164
166
168
170
      </DataArray>
      <DataArray type="UInt8" Name="types" format="ascii">
4
4
4
4
4
4
4
4
4
4
4
4
4
4
4
4
4
4
4
4
4
4
4
4
4
4
4
4
4
4
4
4
4
4
4
4
4
4
4
4
4
4
4
4
4
4
4
4
4
4
4
4
4
4
4
4
4
4
4
4
4
4
4
4
4
4
4
4
4
4
4
4
4
4
4
4
4
4
4
4
4
4
4
4
4
      </DataArray>
    </Cells>
    <PointData>
      <DataArray type="Float64" NumberOfComponents="3" Name="Displacement" format="ascii">
0 0 0
0 0 0
0 0 0
0 0 0
0 0 0
0.00262004 -0.0049166 0.000175009
0.00190778 -0.00506836 0.000149238
-6.21725e-15 -0.0065442 0.000196998
-0.00190778 -0.00506836 0.000149238
-0.00262004 -0.0049166 0.000175009
0.00191566 -0.0585676 0
0.00190492 -0.0543658 0
-4.08562e-14 -0.0610583 0
-0.00190492 -0.0543658 0
-0.00191566 -0.0585676 0
-0.00245835 -0.058643 7.10543e-15
-0.00425965 -0.0533486 -9.76996e-15
-3.4639e-14 -0.0616789 1.77636e-15
0.00425965 -0.0533486 -8.88178e-15
0.00245835 -0.058643 1.95399e-14
0 0 0
0 0 0
0 0 0
0 0 0
0 0 0
0.00262004 -0.0049166 -0.000175009
0.00190778 -0.00506836 -0.000149238
1.59872e-14 -0.0065442 -0.000196998
-0.00190778 -0.00506836 -0.000149238
-0.00262004 -0.0049166 -0.000175009
      </DataArray> 
      <DataArray type="Float64" NumberOfComponents="3" Name="Velocity" format="ascii">
0 0 0
0 0 0
0 0 0
0 0 0
0 0 0
-2.35304e-05 -0.000289203 7.45389e-07
-0.0001368 0.000182729 -2.52398e-06
8.89688e-16 0.000200597 -1.39251e-06
0.0001368 0.000182729 -2.52398e-06
2.35304e-05 -0.000289203 7.45389e-07
-2.03347e-06 -0.000187225 0
6.41793e-05 5.87689e-05 0
1.06763e-14 0.000230074 0
-6.41793e-05 5.87689e-05 0
2.03347e-06 -0.000187225 0
5.51906e-05 0.000150356 8.89688e-15
-7.51333e-06 5.19041e-05 4.44844e-15
-1.33453e-14 -2.80044e-05 -3.9443e-31
7.51333e-06 5.19041e-05 7.1175e-15
-5.51906e-05 0.000150356 1.24556e-14
0 0 0
0 0 0
0 0 0
0 0 0
0 0 0
-2.35304e-05 -0.000289203 -7.45389e-07
-0.0001368 0.000182729 2.52398e-06
5.33813e-15 0.000200597 1.39251e-06
0.0001368 0.000182729 2.52398e-06
2.35304e-05 -0.000289203 -7.45389e-07
      </DataArray> 
      <DataArray type="Float64" NumberOfComponents="3" Name="Acceleration" format="ascii">
0 0 0
0 0 0
0 0 0
0 0 0
0 0 0
-0.000121204 -0.000740936 2.92446e-06
-0.000139288 -0.000296982 -9.65626e-08
-1.33227e-14 0.000599966 -2.33821e-06
0.000139288 -0.000296982 -9.65626e-08
0.000121204 -0.000740936 2.92446e-06
-5.59861e-06 -6.29958e-05 0
1.6325e-05 -3.73884e-05 0
-1.77636e-15 0.000139206 0
-1.6325e-05 -3.73884e-05 0
5.59861e-06 -6.29958e-05 0
3.70801e-05 5.87016e-05 2.54013e-28
-3.14087e-05 1.97884e-05 8.88178e-16
-2.66454e-15 -7.63082e-05 -1.77636e-15
3.14087e-05 1.97884e-05 -1.77636e-15
-3.70801e-05 5.87016e-05 -1.77636e-15
0 0 0
0 0 0
0 0 0
0 0 0
0 0 0
-0.000121204 -0.000740936 -2.92446e-06
-0.000139288 -0.000296982 9.65626e-08
-1.59872e-14 0.000599966 2.33821e-06
0.000139288 -0.000296982 9.65626e-08
0.000121204 -0.000740936 -2.92446e-06
      </DataArray> 
    </PointData>
    <CellData>
    </CellData>
  </Piece>
  </UnstructuredGrid>
</VTKFile>
