<?xml version="1.0"?>
<VTKFile type="UnstructuredGrid">
  <UnstructuredGrid>
  <Piece NumberOfPoints="30"  NumberOfCells="85">
    <Points>
      <DataArray type="Float64" NumberOfComponents="3" format="ascii">
0 0 0
4 0 0
8 0 0
12 0 0
16 0 0
16.0036 2.99549 0.000141673
12.0027 2.99484 0.000132238
8 2.99436 0.000157069
3.99729 2.99484 0.000132238
-0.00362858 2.99549 0.000141673
0.00215187 -0.0553648 8
4.00157 -0.0496513 8
8 -0.0546741 8
11.9984 -0.0496513 8
15.9978 -0.0553648 8
15.9986 2.94499 8
11.9965 2.95109 8
8 2.94361 8
4.00348 2.95109 8
0.00143376 2.94499 8
0 0 16
4 0 16
8 0 16
12 0 16
16 0 16
16.0036 2.99549 15.9999
12.0027 2.99484 15.9999
8 2.99436 15.9998
3.99729 2.99484 15.9999
-0.00362858 2.99549 15.9999
      </DataArray>
    </Points>
    <Cells>
      <DataArray type="Int32" Name="connectivity" format="ascii">
0 1
1 2
2 3
3 4
4 5
5 6
6 7
7 8
8 9
9 0
8 1
7 2
6 3
10 11
11 12
12 13
13 14
14 15
15 16
16 17
17 18
18 19
19 10
18 11
17 12
16 13
20 21
21 22
22 23
23 24
24 25
25 26
26 27
27 28
28 29
20 29
28 21
22 27
23 26
20 10
10 0
29 19
19 9
21 11
28 18
11 1
18 8
22 12
27 17
12 2
17 7
23 13
26 16
13 3
16 6
24 14
25 15
15 5
14 4
25 23
29 21
19 11
9 1
15 13
5 3
8 2
6 2
18 12
16 12
28 22
26 22
19 20
19 0
21 18
18 1
22 17
17 2
23 16
16 3
15 24
15 4
20 18
18 0
24 16
16 4
      </DataArray>
      <DataArray type="Int32" Name="offsets" format="ascii">
2
4
6
8
10
12
14
16
18
20
22
24
26
28
30
32
34
36
38
40
42
44
46
48
50
52
54
56
58
60
62
64
66
68
70
72
74
76
78
80
82
84
86
88
90
92
94
96
98
100
102
104
106
108
110
112
114
116
118
120
122
124
126
128
130
132
134
136
138
140
142
144
146
148
150
152
154
156
158
160
162
164
166
168
170
      </DataArray>
      <DataArray type="UInt8" Name="types" format="ascii">
4
4
4
4
4
4
4
4
4
4
4
4
4
4
4
4
4
4
4
4
4
4
4
4
4
4
4
4
4
4
4
4
4
4
4
4
4
4
4
4
4
4
4
4
4
4
4
4
4
4
4
4
4
4
4
4
4
4
4
4
4
4
4
4
4
4
4
4
4
4
4
4
4
4
4
4
4
4
4
4
4
4
4
4
4
      </DataArray>
    </Cells>
    <PointData>
      <DataArray type="Float64" NumberOfComponents="3" Name="Displacement" format="ascii">
0 0 0
0 0 0
0 0 0
0 0 0
0 0 0
0.00362858 -0.00451154 0.000141673
0.00270672 -0.00515527 0.000132238
0 -0.00563839 0.000157069
-0.00270672 -0.00515527 0.000132238
-0.00362858 -0.00451154 0.000141673
0.00215187 -0.0553648 0
0.00156994 -0.0496513 0
-3.55271e-14 -0.0546741 0
-0.00156994 -0.0496513 0
-0.00215187 -0.0553648 0
-0.00143376 -0.0550072 -1.77636e-14
-0.00348458 -0.0489072 3.55271e-15
-2.84217e-14 -0.0563851 -1.68754e-14
0.00348458 -0.0489072 -1.15463e-14
0.00143376 -0.0550072 -8.88178e-15
0 0 0
0 0 0
0 0 0
0 0 0
0 0 0
0.00362858 -0.00451154 -0.000141673
0.00270672 -0.00515527 -0.000132238
-1.24345e-14 -0.00563839 -0.000157069
-0.00270672 -0.00515527 -0.000132238
-0.00362858 -0.00451154 -0.000141673
      </DataArray> 
      <DataArray type="Float64" NumberOfComponents="3" Name="Velocity" format="ascii">
0 0 0
0 0 0
0 0 0
0 0 0
0 0 0
-0.000777356 -0.000334791 -2.48569e-06
-0.000494255 -0.000795754 -5.77365e-06
5.33813e-15 0.00166118 -1.31771e-05
0.000494255 -0.000795754 -5.77365e-06
0.000777356 -0.000334791 -2.48569e-06
-8.09269e-05 -3.10386e-05 0
0.000153345 0.000336179 0
1.77938e-15 0.000525594 0
-0.000153345 0.000336179 0
8.09269e-05 -3.10386e-05 0
6.8523e-05 0.000101771 1.77938e-15
7.86512e-05 0.000161728 3.55875e-15
4.33873e-30 0.000417379 -4.44844e-15
-7.86512e-05 0.000161728 -1.15659e-14
-6.8523e-05 0.000101771 -3.55875e-15
0 0 0
0 0 0
0 0 0
0 0 0
0 0 0
-0.000777356 -0.000334791 2.48569e-06
-0.000494255 -0.000795754 5.77365e-06
-8.89688e-15 0.00166118 1.31771e-05
0.000494255 -0.000795754 5.77365e-06
0.000777356 -0.000334791 2.48569e-06
      </DataArray> 
      <DataArray type="Float64" NumberOfComponents="3" Name="Acceleration" format="ascii">
0 0 0
0 0 0
0 0 0
0 0 0
0 0 0
-0.000775753 -0.00152232 7.46229e-06
-0.000739205 -0.000393233 -2.9286e-06
3.55271e-15 -0.000360028 1.9227e-06
0.000739205 -0.000393233 -2.9286e-06
0.000775753 -0.00152232 7.46229e-06
-0.000376238 0.000311633 0
0.000466413 -0.000231939 0
-2.13163e-14 -0.000665417 0
-0.000466413 -0.000231939 0
0.000376238 0.000311633 0
-2.54977e-05 -0.000249576 7.10543e-15
1.52816e-05 -1.10266e-05 -9.46633e-30
-7.10543e-15 0.000220068 4.44089e-15
-1.52816e-05 -1.10266e-05 6.21725e-15
2.54977e-05 -0.000249576 1.77636e-15
0 0 0
0 0 0
0 0 0
0 0 0
0 0 0
-0.000775753 -0.00152232 -7.46229e-06
-0.000739205 -0.000393233 2.9286e-06
1.59872e-14 -0.000360028 -1.9227e-06
0.000739205 -0.000393233 2.9286e-06
0.000775753 -0.00152232 -7.46229e-06
      </DataArray> 
    </PointData>
    <CellData>
    </CellData>
  </Piece>
  </UnstructuredGrid>
</VTKFile>
