<?xml version="1.0"?>
<VTKFile type="UnstructuredGrid">
  <UnstructuredGrid>
  <Piece NumberOfPoints="30"  NumberOfCells="85">
    <Points>
      <DataArray type="Float64" NumberOfComponents="3" format="ascii">
0 0 0
4 0 0
8 0 0
12 0 0
16 0 0
16.0025 2.99577 0.000183923
12.002 2.99529 0.000155635
8 2.99539 0.000191321
3.99803 2.99529 0.000155635
-0.00254697 2.99577 0.000183923
0.00220309 -0.0596666 8
4.00175 -0.0545246 8
8 -0.0610186 8
11.9982 -0.0545246 8
15.9978 -0.0596666 8
15.9977 2.94068 8
11.9958 2.94655 8
8 2.9384 8
4.00416 2.94655 8
0.0023213 2.94068 8
0 0 16
4 0 16
8 0 16
12 0 16
16 0 16
16.0025 2.99577 15.9998
12.002 2.99529 15.9998
8 2.99539 15.9998
3.99803 2.99529 15.9998
-0.00254697 2.99577 15.9998
      </DataArray>
    </Points>
    <Cells>
      <DataArray type="Int32" Name="connectivity" format="ascii">
0 1
1 2
2 3
3 4
4 5
5 6
6 7
7 8
8 9
9 0
8 1
7 2
6 3
10 11
11 12
12 13
13 14
14 15
15 16
16 17
17 18
18 19
19 10
18 11
17 12
16 13
20 21
21 22
22 23
23 24
24 25
25 26
26 27
27 28
28 29
20 29
28 21
22 27
23 26
20 10
10 0
29 19
19 9
21 11
28 18
11 1
18 8
22 12
27 17
12 2
17 7
23 13
26 16
13 3
16 6
24 14
25 15
15 5
14 4
25 23
29 21
19 11
9 1
15 13
5 3
8 2
6 2
18 12
16 12
28 22
26 22
19 20
19 0
21 18
18 1
22 17
17 2
23 16
16 3
15 24
15 4
20 18
18 0
24 16
16 4
      </DataArray>
      <DataArray type="Int32" Name="offsets" format="ascii">
2
4
6
8
10
12
14
16
18
20
22
24
26
28
30
32
34
36
38
40
42
44
46
48
50
52
54
56
58
60
62
64
66
68
70
72
74
76
78
80
82
84
86
88
90
92
94
96
98
100
102
104
106
108
110
112
114
116
118
120
122
124
126
128
130
132
134
136
138
140
142
144
146
148
150
152
154
156
158
160
162
164
166
168
170
      </DataArray>
      <DataArray type="UInt8" Name="types" format="ascii">
4
4
4
4
4
4
4
4
4
4
4
4
4
4
4
4
4
4
4
4
4
4
4
4
4
4
4
4
4
4
4
4
4
4
4
4
4
4
4
4
4
4
4
4
4
4
4
4
4
4
4
4
4
4
4
4
4
4
4
4
4
4
4
4
4
4
4
4
4
4
4
4
4
4
4
4
4
4
4
4
4
4
4
4
4
      </DataArray>
    </Cells>
    <PointData>
      <DataArray type="Float64" NumberOfComponents="3" Name="Displacement" format="ascii">
0 0 0
0 0 0
0 0 0
0 0 0
0 0 0
0.00254697 -0.00422879 0.000183923
0.00196952 -0.00471087 0.000155635
-1.86517e-14 -0.00461234 0.000191321
-0.00196952 -0.00471087 0.000155635
-0.00254697 -0.00422879 0.000183923
0.00220309 -0.0596666 0
0.00175462 -0.0545246 0
-5.15143e-14 -0.0610186 0
-0.00175462 -0.0545246 0
-0.00220309 -0.0596666 0
-0.0023213 -0.0593242 -7.99361e-15
-0.00415737 -0.0534479 1.06581e-14
-4.44089e-14 -0.0615951 -1.95399e-14
0.00415737 -0.0534479 1.77636e-15
0.0023213 -0.0593242 -7.99361e-15
0 0 0
0 0 0
0 0 0
0 0 0
0 0 0
0.00254697 -0.00422879 -0.000183923
0.00196952 -0.00471087 -0.000155635
1.77636e-15 -0.00461234 -0.000191321
-0.00196952 -0.00471087 -0.000155635
-0.00254697 -0.00422879 -0.000183923
      </DataArray> 
      <DataArray type="Float64" NumberOfComponents="3" Name="Velocity" format="ascii">
0 0 0
0 0 0
0 0 0
0 0 0
0 0 0
9.09104e-05 -0.000321654 1.03452e-05
0.000113024 -0.000775244 9.74902e-06
8.89688e-16 0.000245547 5.42098e-06
-0.000113024 -0.000775244 9.74902e-06
-9.09104e-05 -0.000321654 1.03452e-05
-0.000178443 -0.000255293 0
7.00138e-05 -0.000232893 0
8.89688e-15 -0.00024457 0
-7.00138e-05 -0.000232893 0
0.000178443 -0.000255293 0
-6.08241e-05 -0.00052184 2.66906e-15
-0.000128296 -0.000510124 -3.55875e-15
5.33813e-15 -0.000790716 -7.1175e-15
0.000128296 -0.000510124 -3.55875e-15
6.08241e-05 -0.00052184 4.44844e-15
0 0 0
0 0 0
0 0 0
0 0 0
0 0 0
9.09104e-05 -0.000321654 -1.03452e-05
0.000113024 -0.000775244 -9.74902e-06
-1.77938e-15 0.000245547 -5.42098e-06
-0.000113024 -0.000775244 -9.74902e-06
-9.09104e-05 -0.000321654 -1.03452e-05
      </DataArray> 
      <DataArray type="Float64" NumberOfComponents="3" Name="Acceleration" format="ascii">
0 0 0
0 0 0
0 0 0
0 0 0
0 0 0
-0.000191514 -0.00155235 2.91411e-06
-0.000369616 -0.000664186 -1.35116e-06
-4.44089e-15 -0.00142384 4.82551e-06
0.000369616 -0.000664186 -1.35116e-06
0.000191514 -0.00155235 2.91411e-06
-0.000288872 0.000300541 0
0.000388214 -7.02642e-05 0
1.95399e-14 0.00016642 0
-0.000388214 -7.02642e-05 0
0.000288872 0.000300541 0
9.51409e-05 -4.49899e-05 -8.88178e-16
-5.05709e-05 1.34973e-05 -3.55271e-15
8.88178e-15 -9.30192e-05 1.77636e-15
5.05709e-05 1.34973e-05 -1.77636e-15
-9.51409e-05 -4.49899e-05 2.66454e-15
0 0 0
0 0 0
0 0 0
0 0 0
0 0 0
-0.000191514 -0.00155235 -2.91411e-06
-0.000369616 -0.000664186 1.35116e-06
-2.30926e-14 -0.00142384 -4.82551e-06
0.000369616 -0.000664186 1.35116e-06
0.000191514 -0.00155235 -2.91411e-06
      </DataArray> 
    </PointData>
    <CellData>
    </CellData>
  </Piece>
  </UnstructuredGrid>
</VTKFile>
