<?xml version="1.0"?>
<VTKFile type="UnstructuredGrid">
  <UnstructuredGrid>
  <Piece NumberOfPoints="30"  NumberOfCells="85">
    <Points>
      <DataArray type="Float64" NumberOfComponents="3" format="ascii">
0 0 0
4 0 0
8 0 0
12 0 0
16 0 0
16.0025 2.99466 0.0001666
12.0017 2.99506 0.000141789
8 2.99322 0.000188049
3.99826 2.99506 0.000141789
-0.00250415 2.99466 0.0001666
0.00187485 -0.0576031 8
4.00203 -0.0528973 8
8 -0.0591543 8
11.998 -0.0528973 8
15.9981 -0.0576031 8
15.9979 2.94251 8
11.9959 2.94807 8
8 2.94001 8
4.00407 2.94807 8
0.00213251 2.94251 8
0 0 16
4 0 16
8 0 16
12 0 16
16 0 16
16.0025 2.99466 15.9998
12.0017 2.99506 15.9999
8 2.99322 15.9998
3.99826 2.99506 15.9999
-0.00250415 2.99466 15.9998
      </DataArray>
    </Points>
    <Cells>
      <DataArray type="Int32" Name="connectivity" format="ascii">
0 1
1 2
2 3
3 4
4 5
5 6
6 7
7 8
8 9
9 0
8 1
7 2
6 3
10 11
11 12
12 13
13 14
14 15
15 16
16 17
17 18
18 19
19 10
18 11
17 12
16 13
20 21
21 22
22 23
23 24
24 25
25 26
26 27
27 28
28 29
20 29
28 21
22 27
23 26
20 10
10 0
29 19
19 9
21 11
28 18
11 1
18 8
22 12
27 17
12 2
17 7
23 13
26 16
13 3
16 6
24 14
25 15
15 5
14 4
25 23
29 21
19 11
9 1
15 13
5 3
8 2
6 2
18 12
16 12
28 22
26 22
19 20
19 0
21 18
18 1
22 17
17 2
23 16
16 3
15 24
15 4
20 18
18 0
24 16
16 4
      </DataArray>
      <DataArray type="Int32" Name="offsets" format="ascii">
2
4
6
8
10
12
14
16
18
20
22
24
26
28
30
32
34
36
38
40
42
44
46
48
50
52
54
56
58
60
62
64
66
68
70
72
74
76
78
80
82
84
86
88
90
92
94
96
98
100
102
104
106
108
110
112
114
116
118
120
122
124
126
128
130
132
134
136
138
140
142
144
146
148
150
152
154
156
158
160
162
164
166
168
170
      </DataArray>
      <DataArray type="UInt8" Name="types" format="ascii">
4
4
4
4
4
4
4
4
4
4
4
4
4
4
4
4
4
4
4
4
4
4
4
4
4
4
4
4
4
4
4
4
4
4
4
4
4
4
4
4
4
4
4
4
4
4
4
4
4
4
4
4
4
4
4
4
4
4
4
4
4
4
4
4
4
4
4
4
4
4
4
4
4
4
4
4
4
4
4
4
4
4
4
4
4
      </DataArray>
    </Cells>
    <PointData>
      <DataArray type="Float64" NumberOfComponents="3" Name="Displacement" format="ascii">
0 0 0
0 0 0
0 0 0
0 0 0
0 0 0
0.00250415 -0.00534306 0.0001666
0.00173514 -0.0049377 0.000141789
1.77636e-14 -0.00677773 0.000188049
-0.00173514 -0.0049377 0.000141789
-0.00250415 -0.00534306 0.0001666
0.00187485 -0.0576031 0
0.00203314 -0.0528973 0
-9.76996e-15 -0.0591543 0
-0.00203314 -0.0528973 0
-0.00187485 -0.0576031 0
-0.00213251 -0.0574875 3.01981e-14
-0.00406509 -0.0519321 8.88178e-15
7.10543e-15 -0.0599889 3.55271e-15
0.00406509 -0.0519321 1.77636e-15
0.00213251 -0.0574875 3.37508e-14
0 0 0
0 0 0
0 0 0
0 0 0
0 0 0
0.00250415 -0.00534306 -0.0001666
0.00173514 -0.0049377 -0.000141789
-4.44089e-15 -0.00677773 -0.000188049
-0.00173514 -0.0049377 -0.000141789
-0.00250415 -0.00534306 -0.0001666
      </DataArray> 
      <DataArray type="Float64" NumberOfComponents="3" Name="Velocity" format="ascii">
0 0 0
0 0 0
0 0 0
0 0 0
0 0 0
0.000298124 0.000875322 -2.65001e-06
0.000350679 9.92452e-06 9.47197e-07
-1.95731e-14 3.10251e-05 -2.22508e-06
-0.000350679 9.92452e-06 9.47197e-07
-0.000298124 0.000875322 -2.65001e-06
-8.07774e-05 0.000235114 0
0.000150598 4.50489e-05 0
2.66906e-15 0.000364738 0
-0.000150598 4.50489e-05 0
8.07774e-05 0.000235114 0
5.00135e-05 -7.5252e-05 -7.1175e-15
-2.62865e-05 2.02397e-05 -7.1175e-15
-2.31319e-14 -4.73628e-05 -3.48511e-31
2.62865e-05 2.02397e-05 -8.89688e-15
-5.00135e-05 -7.5252e-05 1.77938e-15
0 0 0
0 0 0
0 0 0
0 0 0
0 0 0
0.000298124 0.000875322 2.65001e-06
0.000350679 9.92452e-06 -9.47197e-07
-8.89688e-16 3.10251e-05 2.22508e-06
-0.000350679 9.92452e-06 -9.47197e-07
-0.000298124 0.000875322 2.65001e-06
      </DataArray> 
      <DataArray type="Float64" NumberOfComponents="3" Name="Acceleration" format="ascii">
0 0 0
0 0 0
0 0 0
0 0 0
0 0 0
1.02434e-06 -0.000200706 2.09509e-06
2.39022e-05 -0.000386009 -2.92858e-07
-3.55271e-15 0.000845665 -3.94166e-06
-2.39022e-05 -0.000386009 -2.92858e-07
-1.02434e-06 -0.000200706 2.09509e-06
0.000105669 9.97427e-05 0
-0.000176915 -3.0502e-05 0
-9.76996e-15 -3.12858e-05 0
0.000176915 -3.0502e-05 0
-0.000105669 9.97427e-05 0
-4.37835e-05 -9.39747e-05 -5.32907e-15
3.31896e-06 -5.01263e-06 -5.32907e-15
-1.06581e-14 -4.10861e-05 -3.55271e-15
-3.31896e-06 -5.01263e-06 -1.77636e-15
4.37835e-05 -9.39747e-05 -8.88178e-15
0 0 0
0 0 0
0 0 0
0 0 0
0 0 0
1.02434e-06 -0.000200706 -2.09509e-06
2.39022e-05 -0.000386009 2.92858e-07
9.76996e-15 0.000845665 3.94166e-06
-2.39022e-05 -0.000386009 2.92858e-07
-1.02434e-06 -0.000200706 -2.09509e-06
      </DataArray> 
    </PointData>
    <CellData>
    </CellData>
  </Piece>
  </UnstructuredGrid>
</VTKFile>
