<?xml version="1.0"?>
<VTKFile type="UnstructuredGrid">
  <UnstructuredGrid>
  <Piece NumberOfPoints="30"  NumberOfCells="85">
    <Points>
      <DataArray type="Float64" NumberOfComponents="3" format="ascii">
0 0 0
4 0 0
8 0 0
12 0 0
16 0 0
16.0024 2.99464 0.000192294
12.0017 2.99481 0.000145509
8 2.99466 0.000204026
3.99826 2.99481 0.000145509
-0.002442 2.99464 0.000192294
0.00164427 -0.0596362 8
4.00183 -0.0561318 8
8 -0.062876 8
11.9982 -0.0561318 8
15.9984 -0.0596362 8
15.9972 2.94073 8
11.9953 2.94498 8
8 2.93575 8
4.00473 2.94498 8
0.00282546 2.94073 8
0 0 16
4 0 16
8 0 16
12 0 16
16 0 16
16.0024 2.99464 15.9998
12.0017 2.99481 15.9999
8 2.99466 15.9998
3.99826 2.99481 15.9999
-0.002442 2.99464 15.9998
      </DataArray>
    </Points>
    <Cells>
      <DataArray type="Int32" Name="connectivity" format="ascii">
0 1
1 2
2 3
3 4
4 5
5 6
6 7
7 8
8 9
9 0
8 1
7 2
6 3
10 11
11 12
12 13
13 14
14 15
15 16
16 17
17 18
18 19
19 10
18 11
17 12
16 13
20 21
21 22
22 23
23 24
24 25
25 26
26 27
27 28
28 29
20 29
28 21
22 27
23 26
20 10
10 0
29 19
19 9
21 11
28 18
11 1
18 8
22 12
27 17
12 2
17 7
23 13
26 16
13 3
16 6
24 14
25 15
15 5
14 4
25 23
29 21
19 11
9 1
15 13
5 3
8 2
6 2
18 12
16 12
28 22
26 22
19 20
19 0
21 18
18 1
22 17
17 2
23 16
16 3
15 24
15 4
20 18
18 0
24 16
16 4
      </DataArray>
      <DataArray type="Int32" Name="offsets" format="ascii">
2
4
6
8
10
12
14
16
18
20
22
24
26
28
30
32
34
36
38
40
42
44
46
48
50
52
54
56
58
60
62
64
66
68
70
72
74
76
78
80
82
84
86
88
90
92
94
96
98
100
102
104
106
108
110
112
114
116
118
120
122
124
126
128
130
132
134
136
138
140
142
144
146
148
150
152
154
156
158
160
162
164
166
168
170
      </DataArray>
      <DataArray type="UInt8" Name="types" format="ascii">
4
4
4
4
4
4
4
4
4
4
4
4
4
4
4
4
4
4
4
4
4
4
4
4
4
4
4
4
4
4
4
4
4
4
4
4
4
4
4
4
4
4
4
4
4
4
4
4
4
4
4
4
4
4
4
4
4
4
4
4
4
4
4
4
4
4
4
4
4
4
4
4
4
4
4
4
4
4
4
4
4
4
4
4
4
      </DataArray>
    </Cells>
    <PointData>
      <DataArray type="Float64" NumberOfComponents="3" Name="Displacement" format="ascii">
0 0 0
0 0 0
0 0 0
0 0 0
0 0 0
0.002442 -0.00535561 0.000192294
0.00174406 -0.00518908 0.000145509
1.95399e-14 -0.00534264 0.000204026
-0.00174406 -0.00518908 0.000145509
-0.002442 -0.00535561 0.000192294
0.00164427 -0.0596362 0
0.00183128 -0.0561318 0
-1.86517e-14 -0.062876 0
-0.00183128 -0.0561318 0
-0.00164427 -0.0596362 0
-0.00282546 -0.0592654 -1.59872e-14
-0.0047326 -0.0550173 -5.32907e-15
-2.66454e-14 -0.064248 0
0.0047326 -0.0550173 1.24345e-14
0.00282546 -0.0592654 -1.15463e-14
0 0 0
0 0 0
0 0 0
0 0 0
0 0 0
0.002442 -0.00535561 -0.000192294
0.00174406 -0.00518908 -0.000145509
3.55271e-15 -0.00534264 -0.000204026
-0.00174406 -0.00518908 -0.000145509
-0.002442 -0.00535561 -0.000192294
      </DataArray> 
      <DataArray type="Float64" NumberOfComponents="3" Name="Velocity" format="ascii">
0 0 0
0 0 0
0 0 0
0 0 0
0 0 0
-0.000106245 -0.00158492 1.41597e-05
-7.23886e-05 -0.00129993 3.47988e-06
1.4235e-14 0.00151334 1.30791e-06
7.23886e-05 -0.00129993 3.47988e-06
0.000106245 -0.00158492 1.41597e-05
-0.000343628 -4.85164e-05 0
0.000286758 -0.000601954 0
-1.15659e-14 -0.000946491 0
-0.000286758 -0.000601954 0
0.000343628 -4.85164e-05 0
-0.000226912 -0.00047297 -5.33813e-15
-6.45816e-05 -0.000605086 1.77938e-15
-8.89688e-15 -0.000467699 -8.89688e-15
6.45816e-05 -0.000605086 -1.24556e-14
0.000226912 -0.00047297 -6.22781e-15
0 0 0
0 0 0
0 0 0
0 0 0
0 0 0
-0.000106245 -0.00158492 -1.41597e-05
-7.23886e-05 -0.00129993 -3.47988e-06
1.06763e-14 0.00151334 -1.30791e-06
7.23886e-05 -0.00129993 -3.47988e-06
0.000106245 -0.00158492 -1.41597e-05
      </DataArray> 
      <DataArray type="Float64" NumberOfComponents="3" Name="Acceleration" format="ascii">
0 0 0
0 0 0
0 0 0
0 0 0
0 0 0
8.49965e-05 -0.000147918 -3.09102e-06
3.50528e-05 -0.000123735 4.06914e-06
-5.32907e-15 -0.00066889 5.40025e-06
-3.50528e-05 -0.000123735 4.06914e-06
-8.49965e-05 -0.000147918 -3.09102e-06
0.000125819 0.000324297 0
-0.00014306 0.000103515 0
9.76996e-15 -0.000369408 0
0.00014306 0.000103515 0
-0.000125819 0.000324297 0
-6.66326e-05 -0.000164911 5.32907e-15
0.000110683 8.58472e-05 1.77636e-15
5.32907e-15 0.000360971 3.55271e-15
-0.000110683 8.58472e-05 -5.32907e-15
6.66326e-05 -0.000164911 -8.88178e-16
0 0 0
0 0 0
0 0 0
0 0 0
0 0 0
8.49965e-05 -0.000147918 3.09102e-06
3.50528e-05 -0.000123735 -4.06914e-06
-1.06581e-14 -0.00066889 -5.40025e-06
-3.50528e-05 -0.000123735 -4.06914e-06
-8.49965e-05 -0.000147918 3.09102e-06
      </DataArray> 
    </PointData>
    <CellData>
    </CellData>
  </Piece>
  </UnstructuredGrid>
</VTKFile>
