<?xml version="1.0"?>
<VTKFile type="UnstructuredGrid">
  <UnstructuredGrid>
  <Piece NumberOfPoints="30"  NumberOfCells="85">
    <Points>
      <DataArray type="Float64" NumberOfComponents="3" format="ascii">
0 0 0
4 0 0
8 0 0
12 0 0
16 0 0
16.0027 2.99406 0.000201863
12.0019 2.99386 0.000167797
8 2.99424 0.000206584
3.99807 2.99386 0.000167797
-0.00267205 2.99406 0.000201863
0.00177447 -0.0600338 8
4.0021 -0.0552163 8
8 -0.0616875 8
11.9979 -0.0552163 8
15.9982 -0.0600338 8
15.9976 2.93978 8
11.9956 2.94568 8
8 2.93701 8
4.00439 2.94568 8
0.00235004 2.93978 8
0 0 16
4 0 16
8 0 16
12 0 16
16 0 16
16.0027 2.99406 15.9998
12.0019 2.99386 15.9998
8 2.99424 15.9998
3.99807 2.99386 15.9998
-0.00267205 2.99406 15.9998
      </DataArray>
    </Points>
    <Cells>
      <DataArray type="Int32" Name="connectivity" format="ascii">
0 1
1 2
2 3
3 4
4 5
5 6
6 7
7 8
8 9
9 0
8 1
7 2
6 3
10 11
11 12
12 13
13 14
14 15
15 16
16 17
17 18
18 19
19 10
18 11
17 12
16 13
20 21
21 22
22 23
23 24
24 25
25 26
26 27
27 28
28 29
20 29
28 21
22 27
23 26
20 10
10 0
29 19
19 9
21 11
28 18
11 1
18 8
22 12
27 17
12 2
17 7
23 13
26 16
13 3
16 6
24 14
25 15
15 5
14 4
25 23
29 21
19 11
9 1
15 13
5 3
8 2
6 2
18 12
16 12
28 22
26 22
19 20
19 0
21 18
18 1
22 17
17 2
23 16
16 3
15 24
15 4
20 18
18 0
24 16
16 4
      </DataArray>
      <DataArray type="Int32" Name="offsets" format="ascii">
2
4
6
8
10
12
14
16
18
20
22
24
26
28
30
32
34
36
38
40
42
44
46
48
50
52
54
56
58
60
62
64
66
68
70
72
74
76
78
80
82
84
86
88
90
92
94
96
98
100
102
104
106
108
110
112
114
116
118
120
122
124
126
128
130
132
134
136
138
140
142
144
146
148
150
152
154
156
158
160
162
164
166
168
170
      </DataArray>
      <DataArray type="UInt8" Name="types" format="ascii">
4
4
4
4
4
4
4
4
4
4
4
4
4
4
4
4
4
4
4
4
4
4
4
4
4
4
4
4
4
4
4
4
4
4
4
4
4
4
4
4
4
4
4
4
4
4
4
4
4
4
4
4
4
4
4
4
4
4
4
4
4
4
4
4
4
4
4
4
4
4
4
4
4
4
4
4
4
4
4
4
4
4
4
4
4
      </DataArray>
    </Cells>
    <PointData>
      <DataArray type="Float64" NumberOfComponents="3" Name="Displacement" format="ascii">
0 0 0
0 0 0
0 0 0
0 0 0
0 0 0
0.00267205 -0.00593924 0.000201863
0.00193464 -0.00614194 0.000167797
-2.13163e-14 -0.00575948 0.000206584
-0.00193464 -0.00614194 0.000167797
-0.00267205 -0.00593924 0.000201863
0.00177447 -0.0600338 0
0.00210282 -0.0552163 0
-2.57572e-14 -0.0616875 0
-0.00210282 -0.0552163 0
-0.00177447 -0.0600338 0
-0.00235004 -0.0602167 -4.44089e-15
-0.00438994 -0.0543247 1.77636e-15
-2.57572e-14 -0.0629876 -2.4869e-14
0.00438994 -0.0543247 -3.55271e-15
0.00235004 -0.0602167 -8.88178e-16
0 0 0
0 0 0
0 0 0
0 0 0
0 0 0
0.00267205 -0.00593924 -0.000201863
0.00193464 -0.00614194 -0.000167797
-1.42109e-14 -0.00575948 -0.000206584
-0.00193464 -0.00614194 -0.000167797
-0.00267205 -0.00593924 -0.000201863
      </DataArray> 
      <DataArray type="Float64" NumberOfComponents="3" Name="Velocity" format="ascii">
0 0 0
0 0 0
0 0 0
0 0 0
0 0 0
3.39542e-05 -0.00138589 7.56452e-06
-0.000147843 -0.000653399 2.39244e-06
-3.55875e-15 -0.00139074 9.81666e-06
0.000147843 -0.000653399 2.39244e-06
-3.39542e-05 -0.00138589 7.56452e-06
-0.000249444 -0.000111233 0
0.000277591 -0.000457614 0
1.69041e-14 -0.000423158 0
-0.000277591 -0.000457614 0
0.000249444 -0.000111233 0
3.2134e-05 -0.000369088 8.89688e-16
-0.000103883 -0.000365194 -5.33813e-15
1.33453e-14 -0.000599418 1.77938e-15
0.000103883 -0.000365194 -1.77938e-15
-3.2134e-05 -0.000369088 2.66906e-15
0 0 0
0 0 0
0 0 0
0 0 0
0 0 0
3.39542e-05 -0.00138589 -7.56452e-06
-0.000147843 -0.000653399 -2.39244e-06
-1.4235e-14 -0.00139074 -9.81666e-06
0.000147843 -0.000653399 -2.39244e-06
-3.39542e-05 -0.00138589 -7.56452e-06
      </DataArray> 
      <DataArray type="Float64" NumberOfComponents="3" Name="Acceleration" format="ascii">
0 0 0
0 0 0
0 0 0
0 0 0
0 0 0
0.000134654 0.00048992 -5.69012e-06
0.000109192 0.000785824 -5.99294e-06
-2.20881e-29 -0.000209671 -4.37283e-07
-0.000109192 0.000785824 -5.99294e-06
-0.000134654 0.00048992 -5.69012e-06
0.000217991 -0.000156726 0
-0.000180989 -0.000154075 0
-1.15463e-14 -0.000344705 0
0.000180989 -0.000154075 0
-0.000217991 -0.000156726 0
-2.34037e-06 0.000197483 -8.88178e-16
7.49423e-05 0.000131188 1.77636e-15
-8.88178e-16 0.000283992 7.10543e-15
-7.49423e-05 0.000131188 3.55271e-15
2.34037e-06 0.000197483 -4.44089e-15
0 0 0
0 0 0
0 0 0
0 0 0
0 0 0
0.000134654 0.00048992 5.69012e-06
0.000109192 0.000785824 5.99294e-06
1.06581e-14 -0.000209671 4.37283e-07
-0.000109192 0.000785824 5.99294e-06
-0.000134654 0.00048992 5.69012e-06
      </DataArray> 
    </PointData>
    <CellData>
    </CellData>
  </Piece>
  </UnstructuredGrid>
</VTKFile>
