<?xml version="1.0"?>
<VTKFile type="UnstructuredGrid">
  <UnstructuredGrid>
  <Piece NumberOfPoints="30"  NumberOfCells="85">
    <Points>
      <DataArray type="Float64" NumberOfComponents="3" format="ascii">
0 0 0
4 0 0
8 0 0
12 0 0
16 0 0
16.0027 2.99487 0.00017617
12.0019 2.99498 0.000145017
8 2.99435 0.000193733
3.99811 2.99498 0.000145017
-0.00267802 2.99487 0.00017617
0.00193547 -0.058546 8
4.00192 -0.0542388 8
8 -0.0606481 8
11.9981 -0.0542388 8
15.9981 -0.058546 8
15.9976 2.94154 8
11.9957 2.94685 8
8 2.93839 8
4.00428 2.94685 8
0.00236225 2.94154 8
0 0 16
4 0 16
8 0 16
12 0 16
16 0 16
16.0027 2.99487 15.9998
12.0019 2.99498 15.9999
8 2.99435 15.9998
3.99811 2.99498 15.9999
-0.00267802 2.99487 15.9998
      </DataArray>
    </Points>
    <Cells>
      <DataArray type="Int32" Name="connectivity" format="ascii">
0 1
1 2
2 3
3 4
4 5
5 6
6 7
7 8
8 9
9 0
8 1
7 2
6 3
10 11
11 12
12 13
13 14
14 15
15 16
16 17
17 18
18 19
19 10
18 11
17 12
16 13
20 21
21 22
22 23
23 24
24 25
25 26
26 27
27 28
28 29
20 29
28 21
22 27
23 26
20 10
10 0
29 19
19 9
21 11
28 18
11 1
18 8
22 12
27 17
12 2
17 7
23 13
26 16
13 3
16 6
24 14
25 15
15 5
14 4
25 23
29 21
19 11
9 1
15 13
5 3
8 2
6 2
18 12
16 12
28 22
26 22
19 20
19 0
21 18
18 1
22 17
17 2
23 16
16 3
15 24
15 4
20 18
18 0
24 16
16 4
      </DataArray>
      <DataArray type="Int32" Name="offsets" format="ascii">
2
4
6
8
10
12
14
16
18
20
22
24
26
28
30
32
34
36
38
40
42
44
46
48
50
52
54
56
58
60
62
64
66
68
70
72
74
76
78
80
82
84
86
88
90
92
94
96
98
100
102
104
106
108
110
112
114
116
118
120
122
124
126
128
130
132
134
136
138
140
142
144
146
148
150
152
154
156
158
160
162
164
166
168
170
      </DataArray>
      <DataArray type="UInt8" Name="types" format="ascii">
4
4
4
4
4
4
4
4
4
4
4
4
4
4
4
4
4
4
4
4
4
4
4
4
4
4
4
4
4
4
4
4
4
4
4
4
4
4
4
4
4
4
4
4
4
4
4
4
4
4
4
4
4
4
4
4
4
4
4
4
4
4
4
4
4
4
4
4
4
4
4
4
4
4
4
4
4
4
4
4
4
4
4
4
4
      </DataArray>
    </Cells>
    <PointData>
      <DataArray type="Float64" NumberOfComponents="3" Name="Displacement" format="ascii">
0 0 0
0 0 0
0 0 0
0 0 0
0 0 0
0.00267802 -0.00513357 0.00017617
0.00189171 -0.00501998 0.000145017
-1.68754e-14 -0.00564617 0.000193733
-0.00189171 -0.00501998 0.000145017
-0.00267802 -0.00513357 0.00017617
0.00193547 -0.058546 0
0.00191933 -0.0542388 0
-3.73035e-14 -0.0606481 0
-0.00191933 -0.0542388 0
-0.00193547 -0.058546 0
-0.00236225 -0.05846 -2.66454e-15
-0.0042829 -0.0531505 3.55271e-15
0 -0.0616114 8.88178e-15
0.0042829 -0.0531505 -5.32907e-15
0.00236225 -0.05846 -2.04281e-14
0 0 0
0 0 0
0 0 0
0 0 0
0 0 0
0.00267802 -0.00513357 -0.00017617
0.00189171 -0.00501998 -0.000145017
1.95399e-14 -0.00564617 -0.000193733
-0.00189171 -0.00501998 -0.000145017
-0.00267802 -0.00513357 -0.00017617
      </DataArray> 
      <DataArray type="Float64" NumberOfComponents="3" Name="Velocity" format="ascii">
0 0 0
0 0 0
0 0 0
0 0 0
0 0 0
6.68226e-05 0.000181393 -6.76827e-07
5.80739e-05 8.05258e-05 -1.59717e-06
9.78656e-15 -0.000309562 1.60108e-06
-5.80739e-05 8.05258e-05 -1.59717e-06
-6.68226e-05 0.000181393 -6.76827e-07
0.000109441 -5.94586e-05 0
-0.000134447 1.12653e-05 0
1.77938e-15 -8.29907e-05 0
0.000134447 1.12653e-05 0
-0.000109441 -5.94586e-05 0
-1.52548e-05 6.2672e-05 -6.22781e-15
2.50802e-05 4.08453e-05 -3.55875e-15
-1.24556e-14 7.15976e-05 7.1175e-15
-2.50802e-05 4.08453e-05 7.88861e-31
1.52548e-05 6.2672e-05 -8.89688e-16
0 0 0
0 0 0
0 0 0
0 0 0
0 0 0
6.68226e-05 0.000181393 6.76826e-07
5.80739e-05 8.05258e-05 1.59717e-06
-5.33813e-15 -0.000309562 -1.60108e-06
-5.80739e-05 8.05258e-05 1.59717e-06
-6.68226e-05 0.000181393 6.76826e-07
      </DataArray> 
      <DataArray type="Float64" NumberOfComponents="3" Name="Acceleration" format="ascii">
0 0 0
0 0 0
0 0 0
0 0 0
0 0 0
-0.000137061 -0.000498817 1.50346e-06
-9.08534e-05 -0.000340872 9.27149e-07
2.22045e-14 -0.000336166 1.13394e-06
9.08534e-05 -0.000340872 9.27149e-07
0.000137061 -0.000498817 1.50346e-06
-9.91337e-06 7.62806e-05 0
-2.30852e-05 3.47989e-05 0
8.88178e-15 -0.000100279 0
2.30852e-05 3.47989e-05 0
9.91337e-06 7.62806e-05 0
-2.79729e-05 -3.81713e-05 8.88178e-16
2.60958e-05 5.54797e-06 1.7631e-28
-1.42109e-14 7.55816e-05 5.32907e-15
-2.60958e-05 5.54797e-06 -5.32907e-15
2.79729e-05 -3.81713e-05 -2.66454e-15
0 0 0
0 0 0
0 0 0
0 0 0
0 0 0
-0.000137061 -0.000498817 -1.50346e-06
-9.08534e-05 -0.000340872 -9.27149e-07
-8.88178e-15 -0.000336166 -1.13394e-06
9.08534e-05 -0.000340872 -9.27149e-07
0.000137061 -0.000498817 -1.50346e-06
      </DataArray> 
    </PointData>
    <CellData>
    </CellData>
  </Piece>
  </UnstructuredGrid>
</VTKFile>
