<?xml version="1.0"?>
<VTKFile type="UnstructuredGrid">
  <UnstructuredGrid>
  <Piece NumberOfPoints="30"  NumberOfCells="85">
    <Points>
      <DataArray type="Float64" NumberOfComponents="3" format="ascii">
0 0 0
4 0 0
8 0 0
12 0 0
16 0 0
16.0026 2.99408 0.000178077
12.0018 2.99445 0.000145986
8 2.99439 0.000190778
3.99817 2.99445 0.000145986
-0.0026462 2.99408 0.000178077
0.00189312 -0.0582224 8
4.00189 -0.0540485 8
8 -0.0606317 8
11.9981 -0.0540485 8
15.9981 -0.0582224 8
15.9976 2.94161 8
11.9958 2.94703 8
8 2.93873 8
4.00423 2.94703 8
0.00238534 2.94161 8
0 0 16
4 0 16
8 0 16
12 0 16
16 0 16
16.0026 2.99408 15.9998
12.0018 2.99445 15.9999
8 2.99439 15.9998
3.99817 2.99445 15.9999
-0.0026462 2.99408 15.9998
      </DataArray>
    </Points>
    <Cells>
      <DataArray type="Int32" Name="connectivity" format="ascii">
0 1
1 2
2 3
3 4
4 5
5 6
6 7
7 8
8 9
9 0
8 1
7 2
6 3
10 11
11 12
12 13
13 14
14 15
15 16
16 17
17 18
18 19
19 10
18 11
17 12
16 13
20 21
21 22
22 23
23 24
24 25
25 26
26 27
27 28
28 29
20 29
28 21
22 27
23 26
20 10
10 0
29 19
19 9
21 11
28 18
11 1
18 8
22 12
27 17
12 2
17 7
23 13
26 16
13 3
16 6
24 14
25 15
15 5
14 4
25 23
29 21
19 11
9 1
15 13
5 3
8 2
6 2
18 12
16 12
28 22
26 22
19 20
19 0
21 18
18 1
22 17
17 2
23 16
16 3
15 24
15 4
20 18
18 0
24 16
16 4
      </DataArray>
      <DataArray type="Int32" Name="offsets" format="ascii">
2
4
6
8
10
12
14
16
18
20
22
24
26
28
30
32
34
36
38
40
42
44
46
48
50
52
54
56
58
60
62
64
66
68
70
72
74
76
78
80
82
84
86
88
90
92
94
96
98
100
102
104
106
108
110
112
114
116
118
120
122
124
126
128
130
132
134
136
138
140
142
144
146
148
150
152
154
156
158
160
162
164
166
168
170
      </DataArray>
      <DataArray type="UInt8" Name="types" format="ascii">
4
4
4
4
4
4
4
4
4
4
4
4
4
4
4
4
4
4
4
4
4
4
4
4
4
4
4
4
4
4
4
4
4
4
4
4
4
4
4
4
4
4
4
4
4
4
4
4
4
4
4
4
4
4
4
4
4
4
4
4
4
4
4
4
4
4
4
4
4
4
4
4
4
4
4
4
4
4
4
4
4
4
4
4
4
      </DataArray>
    </Cells>
    <PointData>
      <DataArray type="Float64" NumberOfComponents="3" Name="Displacement" format="ascii">
0 0 0
0 0 0
0 0 0
0 0 0
0 0 0
0.0026462 -0.00592139 0.000178077
0.00183019 -0.00554645 0.000145986
-1.68754e-14 -0.00560826 0.000190778
-0.00183019 -0.00554645 0.000145986
-0.0026462 -0.00592139 0.000178077
0.00189312 -0.0582224 0
0.00189432 -0.0540485 0
-3.64153e-14 -0.0606317 0
-0.00189432 -0.0540485 0
-0.00189312 -0.0582224 0
-0.00238534 -0.0583922 1.77636e-14
-0.0042298 -0.0529707 1.77636e-14
-4.35207e-14 -0.0612737 5.32907e-15
0.0042298 -0.0529707 -2.4869e-14
0.00238534 -0.0583922 3.01981e-14
0 0 0
0 0 0
0 0 0
0 0 0
0 0 0
0.0026462 -0.00592139 -0.000178077
0.00183019 -0.00554645 -0.000145986
3.55271e-15 -0.00560826 -0.000190778
-0.00183019 -0.00554645 -0.000145986
-0.0026462 -0.00592139 -0.000178077
      </DataArray> 
      <DataArray type="Float64" NumberOfComponents="3" Name="Velocity" format="ascii">
0 0 0
0 0 0
0 0 0
0 0 0
0 0 0
5.38427e-05 9.67647e-05 -7.21533e-08
4.15754e-05 0.000187862 -1.62192e-06
9.78656e-15 -9.22895e-05 2.64163e-07
-4.15754e-05 0.000187862 -1.62192e-06
-5.38427e-05 9.67647e-05 -7.21533e-08
-2.32937e-05 -3.51252e-05 0
4.6967e-05 -1.53924e-05 0
8.00719e-15 7.62762e-05 0
-4.6967e-05 -1.53924e-05 0
2.32937e-05 -3.51252e-05 0
2.89243e-05 5.77391e-05 1.24556e-14
-9.68e-06 4.95208e-05 7.1175e-15
6.22781e-15 9.46227e-06 3.55875e-15
9.68e-06 4.95208e-05 -1.77938e-15
-2.89243e-05 5.77391e-05 1.77938e-15
0 0 0
0 0 0
0 0 0
0 0 0
0 0 0
5.38427e-05 9.67647e-05 7.21533e-08
4.15754e-05 0.000187862 1.62192e-06
-7.1175e-15 -9.22895e-05 -2.64163e-07
-4.15754e-05 0.000187862 1.62192e-06
-5.38427e-05 9.67647e-05 7.21533e-08
      </DataArray> 
      <DataArray type="Float64" NumberOfComponents="3" Name="Acceleration" format="ascii">
0 0 0
0 0 0
0 0 0
0 0 0
0 0 0
8.02304e-05 0.000463997 -1.27966e-06
0.00011247 0.000203949 -6.94341e-07
2.57572e-14 -0.000378005 1.48092e-06
-0.00011247 0.000203949 -6.94341e-07
-8.02304e-05 0.000463997 -1.27966e-06
2.33228e-06 -0.000146334 0
1.27835e-05 3.33367e-06 0
1.33227e-14 0.000126839 0
-1.27835e-05 3.33367e-06 0
-2.33228e-06 -0.000146334 0
2.07861e-05 9.06614e-05 -3.55271e-15
-1.91911e-05 -1.26881e-05 -7.10543e-15
2.66454e-15 -8.17999e-05 -1.24345e-14
1.91911e-05 -1.26881e-05 1.06581e-14
-2.07861e-05 9.06614e-05 -5.32907e-15
0 0 0
0 0 0
0 0 0
0 0 0
0 0 0
8.02304e-05 0.000463997 1.27966e-06
0.00011247 0.000203949 6.94341e-07
-1.90904e-28 -0.000378005 -1.48092e-06
-0.00011247 0.000203949 6.94341e-07
-8.02304e-05 0.000463997 1.27966e-06
      </DataArray> 
    </PointData>
    <CellData>
    </CellData>
  </Piece>
  </UnstructuredGrid>
</VTKFile>
