<?xml version="1.0"?>
<VTKFile type="UnstructuredGrid">
  <UnstructuredGrid>
  <Piece NumberOfPoints="30"  NumberOfCells="85">
    <Points>
      <DataArray type="Float64" NumberOfComponents="3" format="ascii">
0 0 0
4 0 0
8 0 0
12 0 0
16 0 0
16.0025 2.99416 0.000178311
12.0017 2.99485 0.000144867
8 2.99424 0.000193161
3.99832 2.99485 0.000144867
-0.00252808 2.99416 0.000178311
0.00192901 -0.0587376 8
4.00196 -0.0542571 8
8 -0.0606282 8
11.998 -0.0542571 8
15.9981 -0.0587376 8
15.9976 2.94157 8
11.9957 2.9468 8
8 2.93831 8
4.00428 2.9468 8
0.00235433 2.94157 8
0 0 16
4 0 16
8 0 16
12 0 16
16 0 16
16.0025 2.99416 15.9998
12.0017 2.99485 15.9999
8 2.99424 15.9998
3.99832 2.99485 15.9999
-0.00252808 2.99416 15.9998
      </DataArray>
    </Points>
    <Cells>
      <DataArray type="Int32" Name="connectivity" format="ascii">
0 1
1 2
2 3
3 4
4 5
5 6
6 7
7 8
8 9
9 0
8 1
7 2
6 3
10 11
11 12
12 13
13 14
14 15
15 16
16 17
17 18
18 19
19 10
18 11
17 12
16 13
20 21
21 22
22 23
23 24
24 25
25 26
26 27
27 28
28 29
20 29
28 21
22 27
23 26
20 10
10 0
29 19
19 9
21 11
28 18
11 1
18 8
22 12
27 17
12 2
17 7
23 13
26 16
13 3
16 6
24 14
25 15
15 5
14 4
25 23
29 21
19 11
9 1
15 13
5 3
8 2
6 2
18 12
16 12
28 22
26 22
19 20
19 0
21 18
18 1
22 17
17 2
23 16
16 3
15 24
15 4
20 18
18 0
24 16
16 4
      </DataArray>
      <DataArray type="Int32" Name="offsets" format="ascii">
2
4
6
8
10
12
14
16
18
20
22
24
26
28
30
32
34
36
38
40
42
44
46
48
50
52
54
56
58
60
62
64
66
68
70
72
74
76
78
80
82
84
86
88
90
92
94
96
98
100
102
104
106
108
110
112
114
116
118
120
122
124
126
128
130
132
134
136
138
140
142
144
146
148
150
152
154
156
158
160
162
164
166
168
170
      </DataArray>
      <DataArray type="UInt8" Name="types" format="ascii">
4
4
4
4
4
4
4
4
4
4
4
4
4
4
4
4
4
4
4
4
4
4
4
4
4
4
4
4
4
4
4
4
4
4
4
4
4
4
4
4
4
4
4
4
4
4
4
4
4
4
4
4
4
4
4
4
4
4
4
4
4
4
4
4
4
4
4
4
4
4
4
4
4
4
4
4
4
4
4
4
4
4
4
4
4
      </DataArray>
    </Cells>
    <PointData>
      <DataArray type="Float64" NumberOfComponents="3" Name="Displacement" format="ascii">
0 0 0
0 0 0
0 0 0
0 0 0
0 0 0
0.00252808 -0.00583663 0.000178311
0.00167828 -0.00515327 0.000144867
-8.88178e-15 -0.00576258 0.000193161
-0.00167828 -0.00515327 0.000144867
-0.00252808 -0.00583663 0.000178311
0.00192901 -0.0587376 0
0.00196188 -0.0542571 0
-2.75335e-14 -0.0606282 0
-0.00196188 -0.0542571 0
-0.00192901 -0.0587376 0
-0.00235433 -0.0584313 1.95399e-14
-0.00427679 -0.053203 -2.66454e-15
-5.41789e-14 -0.0616884 0
0.00427679 -0.053203 -2.66454e-15
0.00235433 -0.0584313 3.55271e-14
0 0 0
0 0 0
0 0 0
0 0 0
0 0 0
0.00252808 -0.00583663 -0.000178311
0.00167828 -0.00515327 -0.000144867
1.24345e-14 -0.00576258 -0.000193161
-0.00167828 -0.00515327 -0.000144867
-0.00252808 -0.00583663 -0.000178311
      </DataArray> 
      <DataArray type="Float64" NumberOfComponents="3" Name="Velocity" format="ascii">
0 0 0
0 0 0
0 0 0
0 0 0
0 0 0
-6.82747e-05 -0.000629267 2.55077e-06
-9.23068e-05 -0.000267493 -1.83955e-06
-3.55875e-15 0.000579702 -2.43793e-06
9.23068e-05 -0.000267493 -1.83955e-06
6.82747e-05 -0.000629267 2.55077e-06
1.53564e-05 1.74933e-05 0
-7.30701e-06 4.98052e-05 0
2.66906e-15 0.000199213 0
7.30701e-06 4.98052e-05 0
-1.53564e-05 1.74933e-05 0
4.86456e-05 6.09933e-05 3.55875e-15
-9.5957e-06 9.34683e-05 2.66906e-15
-6.22781e-15 1.85305e-05 -1.77938e-15
9.5957e-06 9.34683e-05 -8.89688e-16
-4.86456e-05 6.09933e-05 3.55875e-15
0 0 0
0 0 0
0 0 0
0 0 0
0 0 0
-6.82747e-05 -0.000629267 -2.55077e-06
-9.23068e-05 -0.000267493 1.83955e-06
-8.89688e-15 0.000579702 2.43793e-06
9.23068e-05 -0.000267493 1.83955e-06
6.82747e-05 -0.000629267 -2.55077e-06
      </DataArray> 
      <DataArray type="Float64" NumberOfComponents="3" Name="Acceleration" format="ascii">
0 0 0
0 0 0
0 0 0
0 0 0
0 0 0
7.6536e-05 0.000401449 -1.12214e-06
0.000183705 -0.000152476 7.79839e-07
8.88178e-15 -0.000221504 1.29456e-06
-0.000183705 -0.000152476 7.79839e-07
-7.6536e-05 0.000401449 -1.12214e-06
2.2959e-05 0.000267367 0
-8.769e-05 2.844e-05 0
-6.21725e-15 -0.000170015 0
8.769e-05 2.844e-05 0
-2.2959e-05 0.000267367 0
-4.36139e-05 -0.000147913 -5.32907e-15
2.93298e-05 2.17052e-05 -2.66454e-15
9.76996e-15 0.000122764 1.62111e-28
-2.93298e-05 2.17052e-05 -6.21725e-15
4.36139e-05 -0.000147913 -7.10543e-15
0 0 0
0 0 0
0 0 0
0 0 0
0 0 0
7.6536e-05 0.000401449 1.12214e-06
0.000183705 -0.000152476 -7.79839e-07
1.77636e-15 -0.000221504 -1.29456e-06
-0.000183705 -0.000152476 -7.79839e-07
-7.6536e-05 0.000401449 1.12214e-06
      </DataArray> 
    </PointData>
    <CellData>
    </CellData>
  </Piece>
  </UnstructuredGrid>
</VTKFile>
