<?xml version="1.0"?>
<VTKFile type="UnstructuredGrid">
  <UnstructuredGrid>
  <Piece NumberOfPoints="30"  NumberOfCells="85">
    <Points>
      <DataArray type="Float64" NumberOfComponents="3" format="ascii">
0 0 0
4 0 0
8 0 0
12 0 0
16 0 0
16.0024 2.99431 0.000174238
12.0017 2.99444 0.000144366
8 2.9938 0.000190709
3.9983 2.99444 0.000144366
-0.00240483 2.99431 0.000174238
0.0017857 -0.0579014 8
4.00199 -0.053638 8
8 -0.0601072 8
11.998 -0.053638 8
15.9982 -0.0579014 8
15.9977 2.94198 8
11.9958 2.94737 8
8 2.93902 8
4.0042 2.94737 8
0.00231985 2.94198 8
0 0 16
4 0 16
8 0 16
12 0 16
16 0 16
16.0024 2.99431 15.9998
12.0017 2.99444 15.9999
8 2.9938 15.9998
3.9983 2.99444 15.9999
-0.00240483 2.99431 15.9998
      </DataArray>
    </Points>
    <Cells>
      <DataArray type="Int32" Name="connectivity" format="ascii">
0 1
1 2
2 3
3 4
4 5
5 6
6 7
7 8
8 9
9 0
8 1
7 2
6 3
10 11
11 12
12 13
13 14
14 15
15 16
16 17
17 18
18 19
19 10
18 11
17 12
16 13
20 21
21 22
22 23
23 24
24 25
25 26
26 27
27 28
28 29
20 29
28 21
22 27
23 26
20 10
10 0
29 19
19 9
21 11
28 18
11 1
18 8
22 12
27 17
12 2
17 7
23 13
26 16
13 3
16 6
24 14
25 15
15 5
14 4
25 23
29 21
19 11
9 1
15 13
5 3
8 2
6 2
18 12
16 12
28 22
26 22
19 20
19 0
21 18
18 1
22 17
17 2
23 16
16 3
15 24
15 4
20 18
18 0
24 16
16 4
      </DataArray>
      <DataArray type="Int32" Name="offsets" format="ascii">
2
4
6
8
10
12
14
16
18
20
22
24
26
28
30
32
34
36
38
40
42
44
46
48
50
52
54
56
58
60
62
64
66
68
70
72
74
76
78
80
82
84
86
88
90
92
94
96
98
100
102
104
106
108
110
112
114
116
118
120
122
124
126
128
130
132
134
136
138
140
142
144
146
148
150
152
154
156
158
160
162
164
166
168
170
      </DataArray>
      <DataArray type="UInt8" Name="types" format="ascii">
4
4
4
4
4
4
4
4
4
4
4
4
4
4
4
4
4
4
4
4
4
4
4
4
4
4
4
4
4
4
4
4
4
4
4
4
4
4
4
4
4
4
4
4
4
4
4
4
4
4
4
4
4
4
4
4
4
4
4
4
4
4
4
4
4
4
4
4
4
4
4
4
4
4
4
4
4
4
4
4
4
4
4
4
4
      </DataArray>
    </Cells>
    <PointData>
      <DataArray type="Float64" NumberOfComponents="3" Name="Displacement" format="ascii">
0 0 0
0 0 0
0 0 0
0 0 0
0 0 0
0.00240483 -0.00569331 0.000174238
0.00169916 -0.00555701 0.000144366
5.32907e-15 -0.00620079 0.000190709
-0.00169916 -0.00555701 0.000144366
-0.00240483 -0.00569331 0.000174238
0.0017857 -0.0579014 0
0.00198593 -0.053638 0
7.10543e-15 -0.0601072 0
-0.00198593 -0.053638 0
-0.0017857 -0.0579014 0
-0.00231985 -0.0580225 -7.10543e-15
-0.0042032 -0.0526285 1.77636e-15
-1.24345e-14 -0.0609787 1.95399e-14
0.0042032 -0.0526285 -3.55271e-15
0.00231985 -0.0580225 -3.19744e-14
0 0 0
0 0 0
0 0 0
0 0 0
0 0 0
0.00240483 -0.00569331 -0.000174238
0.00169916 -0.00555701 -0.000144366
-6.21725e-15 -0.00620079 -0.000190709
-0.00169916 -0.00555701 -0.000144366
-0.00240483 -0.00569331 -0.000174238
      </DataArray> 
      <DataArray type="Float64" NumberOfComponents="3" Name="Velocity" format="ascii">
0 0 0
0 0 0
0 0 0
0 0 0
0 0 0
7.74637e-05 0.000390209 -9.84189e-07
0.000126278 7.57699e-05 6.98453e-07
1.60144e-14 0.000365131 -1.01925e-06
-0.000126278 7.57699e-05 6.98453e-07
-7.74637e-05 0.000390209 -9.84189e-07
3.75436e-05 -5.04669e-05 0
-4.56856e-05 3.61684e-05 0
8.89688e-15 0.000116472 0
4.56856e-05 3.61684e-05 0
-3.75436e-05 -5.04669e-05 0
-3.21605e-06 -1.92894e-05 -5.33813e-15
-1.15278e-05 -4.63805e-05 -1.77938e-15
2.13525e-14 -9.08865e-05 -1.60144e-14
1.15278e-05 -4.63805e-05 -3.55875e-15
3.21605e-06 -1.92894e-05 -5.33813e-15
0 0 0
0 0 0
0 0 0
0 0 0
0 0 0
7.74637e-05 0.000390209 9.84189e-07
0.000126278 7.57699e-05 -6.98453e-07
1.15659e-14 0.000365131 1.01925e-06
-0.000126278 7.57699e-05 -6.98453e-07
-7.74637e-05 0.000390209 9.84189e-07
      </DataArray> 
      <DataArray type="Float64" NumberOfComponents="3" Name="Acceleration" format="ascii">
0 0 0
0 0 0
0 0 0
0 0 0
0 0 0
0.000189354 0.000255437 -2.70201e-07
0.000169028 0.000246836 -8.96689e-07
1.59872e-14 0.000238773 -8.58885e-07
-0.000169028 0.000246836 -8.96689e-07
-0.000189354 0.000255437 -2.70201e-07
0.000131728 -0.000103677 0
-0.000153187 -1.71574e-05 0
-3.55271e-15 -3.20588e-05 0
0.000153187 -1.71574e-05 0
-0.000131728 -0.000103677 0
-1.33694e-05 4.01306e-05 -4.14152e-28
3.60761e-06 3.84807e-06 1.77636e-15
5.32907e-15 1.21508e-05 -1.24345e-14
-3.60761e-06 3.84807e-06 -1.05707e-27
1.33694e-05 4.01306e-05 7.10543e-15
0 0 0
0 0 0
0 0 0
0 0 0
0 0 0
0.000189354 0.000255437 2.70201e-07
0.000169028 0.000246836 8.96689e-07
-2.66454e-15 0.000238773 8.58885e-07
-0.000169028 0.000246836 8.96689e-07
-0.000189354 0.000255437 2.70201e-07
      </DataArray> 
    </PointData>
    <CellData>
    </CellData>
  </Piece>
  </UnstructuredGrid>
</VTKFile>
