<?xml version="1.0"?>
<VTKFile type="UnstructuredGrid">
  <UnstructuredGrid>
  <Piece NumberOfPoints="30"  NumberOfCells="85">
    <Points>
      <DataArray type="Float64" NumberOfComponents="3" format="ascii">
0 0 0
4 0 0
8 0 0
12 0 0
16 0 0
16.0002 2.99314 0.000111674
12.0001 2.99352 6.13497e-05
8 2.99116 0.000127031
3.9999 2.99352 6.13497e-05
-0.000157646 2.99314 0.000111674
0.00186141 -0.0512958 8
4.00143 -0.045718 8
8 -0.0499583 8
11.9986 -0.045718 8
15.9981 -0.0512958 8
15.9992 2.94932 8
11.997 2.95493 8
8 2.94784 8
4.00302 2.95493 8
0.000813176 2.94932 8
0 0 16
4 0 16
8 0 16
12 0 16
16 0 16
16.0002 2.99314 15.9999
12.0001 2.99352 15.9999
8 2.99116 15.9999
3.9999 2.99352 15.9999
-0.000157646 2.99314 15.9999
      </DataArray>
    </Points>
    <Cells>
      <DataArray type="Int32" Name="connectivity" format="ascii">
0 1
1 2
2 3
3 4
4 5
5 6
6 7
7 8
8 9
9 0
8 1
7 2
6 3
10 11
11 12
12 13
13 14
14 15
15 16
16 17
17 18
18 19
19 10
18 11
17 12
16 13
20 21
21 22
22 23
23 24
24 25
25 26
26 27
27 28
28 29
20 29
28 21
22 27
23 26
20 10
10 0
29 19
19 9
21 11
28 18
11 1
18 8
22 12
27 17
12 2
17 7
23 13
26 16
13 3
16 6
24 14
25 15
15 5
14 4
25 23
29 21
19 11
9 1
15 13
5 3
8 2
6 2
18 12
16 12
28 22
26 22
19 20
19 0
21 18
18 1
22 17
17 2
23 16
16 3
15 24
15 4
20 18
18 0
24 16
16 4
      </DataArray>
      <DataArray type="Int32" Name="offsets" format="ascii">
2
4
6
8
10
12
14
16
18
20
22
24
26
28
30
32
34
36
38
40
42
44
46
48
50
52
54
56
58
60
62
64
66
68
70
72
74
76
78
80
82
84
86
88
90
92
94
96
98
100
102
104
106
108
110
112
114
116
118
120
122
124
126
128
130
132
134
136
138
140
142
144
146
148
150
152
154
156
158
160
162
164
166
168
170
      </DataArray>
      <DataArray type="UInt8" Name="types" format="ascii">
4
4
4
4
4
4
4
4
4
4
4
4
4
4
4
4
4
4
4
4
4
4
4
4
4
4
4
4
4
4
4
4
4
4
4
4
4
4
4
4
4
4
4
4
4
4
4
4
4
4
4
4
4
4
4
4
4
4
4
4
4
4
4
4
4
4
4
4
4
4
4
4
4
4
4
4
4
4
4
4
4
4
4
4
4
      </DataArray>
    </Cells>
    <PointData>
      <DataArray type="Float64" NumberOfComponents="3" Name="Displacement" format="ascii">
0 0 0
0 0 0
0 0 0
0 0 0
0 0 0
0.000157646 -0.00685755 0.000111674
9.52785e-05 -0.00647593 6.13497e-05
-4.44089e-15 -0.0088351 0.000127031
-9.52785e-05 -0.00647593 6.13497e-05
-0.000157646 -0.00685755 0.000111674
0.00186141 -0.0512958 0
0.00142532 -0.045718 0
-1.42109e-14 -0.0499583 0
-0.00142532 -0.045718 0
-0.00186141 -0.0512958 0
-0.000813176 -0.0506834 -1.86517e-14
-0.00301718 -0.0450672 1.77636e-15
-1.06581e-14 -0.0521575 -1.15463e-14
0.00301718 -0.0450672 -7.99361e-15
0.000813176 -0.0506834 -3.55271e-15
0 0 0
0 0 0
0 0 0
0 0 0
0 0 0
0.000157646 -0.00685755 -0.000111674
9.52785e-05 -0.00647593 -6.13497e-05
-5.32907e-15 -0.0088351 -0.000127031
-9.52785e-05 -0.00647593 -6.13497e-05
-0.000157646 -0.00685755 -0.000111674
      </DataArray> 
      <DataArray type="Float64" NumberOfComponents="3" Name="Velocity" format="ascii">
0 0 0
0 0 0
0 0 0
0 0 0
0 0 0
0.000851411 -8.29537e-05 -8.33538e-07
0.000342104 0.000667426 1.15587e-05
-4.44844e-15 -0.000253291 4.12433e-06
-0.000342104 0.000667426 1.15587e-05
-0.000851411 -8.29537e-05 -8.33538e-07
0.000416933 -0.00163873 0
-4.74728e-05 -0.00128747 0
-1.77938e-15 -0.00210037 0
4.74728e-05 -0.00128747 0
-0.000416933 -0.00163873 0
-0.000249064 -0.00211284 4.44844e-15
6.07446e-05 -0.00148683 5.33813e-15
1.4235e-14 -0.00126237 -8.00719e-15
-6.07446e-05 -0.00148683 8.00719e-15
0.000249064 -0.00211284 -7.1175e-15
0 0 0
0 0 0
0 0 0
0 0 0
0 0 0
0.000851411 -8.29537e-05 8.33538e-07
0.000342104 0.000667426 -1.15587e-05
-3.55875e-15 -0.000253291 -4.12433e-06
-0.000342104 0.000667426 -1.15587e-05
-0.000851411 -8.29537e-05 8.33538e-07
      </DataArray> 
      <DataArray type="Float64" NumberOfComponents="3" Name="Acceleration" format="ascii">
0 0 0
0 0 0
0 0 0
0 0 0
0 0 0
0.00185901 0.00231318 3.47556e-06
0.00149853 0.00155248 1.01477e-05
6.21725e-15 0.00299553 -3.48208e-06
-0.00149853 0.00155248 1.01477e-05
-0.00185901 0.00231318 3.47556e-06
-0.000285374 0.000546255 0
0.000282654 -0.000139861 0
2.84217e-14 -0.000967138 0
-0.000282654 -0.000139861 0
0.000285374 0.000546255 0
-0.000204173 -0.000600316 9.76996e-15
4.80305e-05 -0.000105317 -1.77636e-15
7.10543e-15 0.000298162 -8.88178e-16
-4.80305e-05 -0.000105317 -8.88178e-16
0.000204173 -0.000600316 3.55271e-15
0 0 0
0 0 0
0 0 0
0 0 0
0 0 0
0.00185901 0.00231318 -3.47556e-06
0.00149853 0.00155248 -1.01477e-05
-1.77636e-15 0.00299553 3.48208e-06
-0.00149853 0.00155248 -1.01477e-05
-0.00185901 0.00231318 -3.47556e-06
      </DataArray> 
    </PointData>
    <CellData>
    </CellData>
  </Piece>
  </UnstructuredGrid>
</VTKFile>
