<?xml version="1.0"?>
<VTKFile type="UnstructuredGrid">
  <UnstructuredGrid>
  <Piece NumberOfPoints="30"  NumberOfCells="85">
    <Points>
      <DataArray type="Float64" NumberOfComponents="3" format="ascii">
0 0 0
4 0 0
8 0 0
12 0 0
16 0 0
16.0018 2.99616 0.000136516
12.0017 2.99447 0.000116316
8 2.99572 0.000179179
3.99829 2.99447 0.000116316
-0.00179892 2.99616 0.000136516
0.0016498 -0.055858 8
4.00203 -0.0516642 8
8 -0.058102 8
11.998 -0.0516642 8
15.9984 -0.055858 8
15.9979 2.94407 8
11.9959 2.949 8
8 2.94053 8
4.00405 2.949 8
0.00206225 2.94407 8
0 0 16
4 0 16
8 0 16
12 0 16
16 0 16
16.0018 2.99616 15.9999
12.0017 2.99447 15.9999
8 2.99572 15.9998
3.99829 2.99447 15.9999
-0.00179892 2.99616 15.9999
      </DataArray>
    </Points>
    <Cells>
      <DataArray type="Int32" Name="connectivity" format="ascii">
0 1
1 2
2 3
3 4
4 5
5 6
6 7
7 8
8 9
9 0
8 1
7 2
6 3
10 11
11 12
12 13
13 14
14 15
15 16
16 17
17 18
18 19
19 10
18 11
17 12
16 13
20 21
21 22
22 23
23 24
24 25
25 26
26 27
27 28
28 29
20 29
28 21
22 27
23 26
20 10
10 0
29 19
19 9
21 11
28 18
11 1
18 8
22 12
27 17
12 2
17 7
23 13
26 16
13 3
16 6
24 14
25 15
15 5
14 4
25 23
29 21
19 11
9 1
15 13
5 3
8 2
6 2
18 12
16 12
28 22
26 22
19 20
19 0
21 18
18 1
22 17
17 2
23 16
16 3
15 24
15 4
20 18
18 0
24 16
16 4
      </DataArray>
      <DataArray type="Int32" Name="offsets" format="ascii">
2
4
6
8
10
12
14
16
18
20
22
24
26
28
30
32
34
36
38
40
42
44
46
48
50
52
54
56
58
60
62
64
66
68
70
72
74
76
78
80
82
84
86
88
90
92
94
96
98
100
102
104
106
108
110
112
114
116
118
120
122
124
126
128
130
132
134
136
138
140
142
144
146
148
150
152
154
156
158
160
162
164
166
168
170
      </DataArray>
      <DataArray type="UInt8" Name="types" format="ascii">
4
4
4
4
4
4
4
4
4
4
4
4
4
4
4
4
4
4
4
4
4
4
4
4
4
4
4
4
4
4
4
4
4
4
4
4
4
4
4
4
4
4
4
4
4
4
4
4
4
4
4
4
4
4
4
4
4
4
4
4
4
4
4
4
4
4
4
4
4
4
4
4
4
4
4
4
4
4
4
4
4
4
4
4
4
      </DataArray>
    </Cells>
    <PointData>
      <DataArray type="Float64" NumberOfComponents="3" Name="Displacement" format="ascii">
0 0 0
0 0 0
0 0 0
0 0 0
0 0 0
0.00179892 -0.00384457 0.000136516
0.00170712 -0.00553164 0.000116316
-1.24345e-14 -0.00428013 0.000179179
-0.00170712 -0.00553164 0.000116316
-0.00179892 -0.00384457 0.000136516
0.0016498 -0.055858 0
0.00202606 -0.0516642 0
4.9738e-14 -0.058102 0
-0.00202606 -0.0516642 0
-0.0016498 -0.055858 0
-0.00206225 -0.0559291 1.24345e-14
-0.0040508 -0.0510044 -1.77636e-15
3.37508e-14 -0.0594728 5.32907e-15
0.0040508 -0.0510044 -4.44089e-15
0.00206225 -0.0559291 2.13163e-14
0 0 0
0 0 0
0 0 0
0 0 0
0 0 0
0.00179892 -0.00384457 -0.000136516
0.00170712 -0.00553164 -0.000116316
-7.99361e-15 -0.00428013 -0.000179179
-0.00170712 -0.00553164 -0.000116316
-0.00179892 -0.00384457 -0.000136516
      </DataArray> 
      <DataArray type="Float64" NumberOfComponents="3" Name="Velocity" format="ascii">
0 0 0
0 0 0
0 0 0
0 0 0
0 0 0
0.000637931 0.00125139 -8.02989e-06
0.000564209 0.000358585 -1.28389e-05
3.55875e-15 0.000661456 -1.14789e-05
-0.000564209 0.000358585 -1.28389e-05
-0.000637931 0.00125139 -8.02989e-06
-1.0877e-05 0.00025252 0
4.05515e-05 0.000880925 0
5.33813e-15 0.00106829 0
-4.05515e-05 0.000880925 0
1.0877e-05 0.00025252 0
5.31876e-05 0.00109072 -3.55875e-15
-2.30271e-05 0.000659833 1.77938e-15
-1.06763e-14 0.000421374 3.55875e-15
2.30271e-05 0.000659833 -9.78656e-15
-5.31876e-05 0.00109072 1.77938e-15
0 0 0
0 0 0
0 0 0
0 0 0
0 0 0
0.000637931 0.00125139 8.02989e-06
0.000564209 0.000358585 1.28389e-05
8.00719e-15 0.000661456 1.14789e-05
-0.000564209 0.000358585 1.28389e-05
-0.000637931 0.00125139 8.02989e-06
      </DataArray> 
      <DataArray type="Float64" NumberOfComponents="3" Name="Acceleration" format="ascii">
0 0 0
0 0 0
0 0 0
0 0 0
0 0 0
0.000343845 -0.00181458 1.29901e-05
-0.00023174 0.000217603 5.00626e-06
-1.77636e-15 -0.00177607 4.74425e-06
0.00023174 0.000217603 5.00626e-06
-0.000343845 -0.00181458 1.29901e-05
0.000246907 -6.26858e-05 0
-0.000348241 -0.000173298 0
-2.84217e-14 -0.000351339 0
0.000348241 -0.000173298 0
-0.000246907 -6.26858e-05 0
-0.000114331 -0.000116072 -8.88178e-15
4.36562e-05 4.79889e-05 1.77636e-15
1.77636e-15 0.000178847 -5.32907e-15
-4.36562e-05 4.79889e-05 -8.88178e-16
0.000114331 -0.000116072 -7.10543e-15
0 0 0
0 0 0
0 0 0
0 0 0
0 0 0
0.000343845 -0.00181458 -1.29901e-05
-0.00023174 0.000217603 -5.00626e-06
-1.15463e-14 -0.00177607 -4.74425e-06
0.00023174 0.000217603 -5.00626e-06
-0.000343845 -0.00181458 -1.29901e-05
      </DataArray> 
    </PointData>
    <CellData>
    </CellData>
  </Piece>
  </UnstructuredGrid>
</VTKFile>
