<?xml version="1.0"?>
<VTKFile type="UnstructuredGrid">
  <UnstructuredGrid>
  <Piece NumberOfPoints="30"  NumberOfCells="85">
    <Points>
      <DataArray type="Float64" NumberOfComponents="3" format="ascii">
0 0 0
4 0 0
8 0 0
12 0 0
16 0 0
16.0026 2.99495 0.000175246
12.0019 2.99477 0.000143744
8 2.9944 0.000189799
3.99806 2.99477 0.000143744
-0.00261279 2.99495 0.000175246
0.00194299 -0.0584092 8
4.00179 -0.0539887 8
8 -0.060405 8
11.9982 -0.0539887 8
15.9981 -0.0584092 8
15.9976 2.9417 8
11.9958 2.947 8
8 2.93863 8
4.00424 2.947 8
0.00237809 2.9417 8
0 0 16
4 0 16
8 0 16
12 0 16
16 0 16
16.0026 2.99495 15.9998
12.0019 2.99477 15.9999
8 2.9944 15.9998
3.99806 2.99477 15.9999
-0.00261279 2.99495 15.9998
      </DataArray>
    </Points>
    <Cells>
      <DataArray type="Int32" Name="connectivity" format="ascii">
0 1
1 2
2 3
3 4
4 5
5 6
6 7
7 8
8 9
9 0
8 1
7 2
6 3
10 11
11 12
12 13
13 14
14 15
15 16
16 17
17 18
18 19
19 10
18 11
17 12
16 13
20 21
21 22
22 23
23 24
24 25
25 26
26 27
27 28
28 29
20 29
28 21
22 27
23 26
20 10
10 0
29 19
19 9
21 11
28 18
11 1
18 8
22 12
27 17
12 2
17 7
23 13
26 16
13 3
16 6
24 14
25 15
15 5
14 4
25 23
29 21
19 11
9 1
15 13
5 3
8 2
6 2
18 12
16 12
28 22
26 22
19 20
19 0
21 18
18 1
22 17
17 2
23 16
16 3
15 24
15 4
20 18
18 0
24 16
16 4
      </DataArray>
      <DataArray type="Int32" Name="offsets" format="ascii">
2
4
6
8
10
12
14
16
18
20
22
24
26
28
30
32
34
36
38
40
42
44
46
48
50
52
54
56
58
60
62
64
66
68
70
72
74
76
78
80
82
84
86
88
90
92
94
96
98
100
102
104
106
108
110
112
114
116
118
120
122
124
126
128
130
132
134
136
138
140
142
144
146
148
150
152
154
156
158
160
162
164
166
168
170
      </DataArray>
      <DataArray type="UInt8" Name="types" format="ascii">
4
4
4
4
4
4
4
4
4
4
4
4
4
4
4
4
4
4
4
4
4
4
4
4
4
4
4
4
4
4
4
4
4
4
4
4
4
4
4
4
4
4
4
4
4
4
4
4
4
4
4
4
4
4
4
4
4
4
4
4
4
4
4
4
4
4
4
4
4
4
4
4
4
4
4
4
4
4
4
4
4
4
4
4
4
      </DataArray>
    </Cells>
    <PointData>
      <DataArray type="Float64" NumberOfComponents="3" Name="Displacement" format="ascii">
0 0 0
0 0 0
0 0 0
0 0 0
0 0 0
0.00261279 -0.00505082 0.000175246
0.00194181 -0.00522823 0.000143744
-2.66454e-15 -0.00559584 0.000189799
-0.00194181 -0.00522823 0.000143744
-0.00261279 -0.00505082 0.000175246
0.00194299 -0.0584092 0
0.00179388 -0.0539887 0
3.37508e-14 -0.060405 0
-0.00179388 -0.0539887 0
-0.00194299 -0.0584092 0
-0.00237809 -0.0582992 2.30926e-14
-0.004244 -0.0529955 -1.77636e-15
2.84217e-14 -0.0613654 -6.21725e-15
0.004244 -0.0529955 -7.10543e-15
0.00237809 -0.0582992 2.30926e-14
0 0 0
0 0 0
0 0 0
0 0 0
0 0 0
0.00261279 -0.00505082 -0.000175246
0.00194181 -0.00522823 -0.000143744
8.88178e-15 -0.00559584 -0.000189799
-0.00194181 -0.00522823 -0.000143744
-0.00261279 -0.00505082 -0.000175246
      </DataArray> 
      <DataArray type="Float64" NumberOfComponents="3" Name="Velocity" format="ascii">
0 0 0
0 0 0
0 0 0
0 0 0
0 0 0
4.97671e-05 -2.59648e-05 4.70853e-07
-2.05328e-05 0.00017014 8.85153e-07
8.89688e-16 0.000184653 3.1828e-07
2.05328e-05 0.00017014 8.85153e-07
-4.97671e-05 -2.59648e-05 4.70853e-07
2.38857e-05 -9.57606e-05 0
-1.74961e-05 -9.47725e-05 0
-1.06763e-14 -0.000134872 0
1.74961e-05 -9.47725e-05 0
-2.38857e-05 -9.57606e-05 0
5.11794e-06 1.29657e-05 5.33813e-15
2.98499e-06 -7.30708e-06 8.89688e-15
1.77938e-15 -1.12502e-05 -8.89688e-16
-2.98499e-06 -7.30708e-06 -1.24556e-14
-5.11794e-06 1.29657e-05 -4.73317e-30
0 0 0
0 0 0
0 0 0
0 0 0
0 0 0
4.97671e-05 -2.59648e-05 -4.70853e-07
-2.05328e-05 0.00017014 -8.85153e-07
-8.89688e-15 0.000184653 -3.1828e-07
2.05328e-05 0.00017014 -8.85153e-07
-4.97671e-05 -2.59648e-05 -4.70853e-07
      </DataArray> 
      <DataArray type="Float64" NumberOfComponents="3" Name="Acceleration" format="ascii">
0 0 0
0 0 0
0 0 0
0 0 0
0 0 0
-4.93085e-05 -0.000578519 1.62836e-06
-0.00015961 -0.000143533 6.33935e-07
4.44089e-15 -0.000392989 2.14778e-06
0.00015961 -0.000143533 6.33935e-07
4.93085e-05 -0.000578519 1.62836e-06
-9.58571e-05 9.73312e-05 0
0.000146866 -6.12351e-05 0
-1.59872e-14 -0.000106725 0
-0.000146866 -6.12351e-05 0
9.58571e-05 9.73312e-05 0
2.55277e-05 -2.77195e-05 -5.32907e-15
1.12992e-05 3.06795e-05 1.77636e-15
-1.42109e-14 6.59992e-05 4.44089e-15
-1.12992e-05 3.06795e-05 3.55271e-15
-2.55277e-05 -2.77195e-05 1.77636e-15
0 0 0
0 0 0
0 0 0
0 0 0
0 0 0
-4.93085e-05 -0.000578519 -1.62836e-06
-0.00015961 -0.000143533 -6.33935e-07
-5.32907e-15 -0.000392989 -2.14778e-06
0.00015961 -0.000143533 -6.33935e-07
4.93085e-05 -0.000578519 -1.62836e-06
      </DataArray> 
    </PointData>
    <CellData>
    </CellData>
  </Piece>
  </UnstructuredGrid>
</VTKFile>
