<?xml version="1.0"?>
<VTKFile type="UnstructuredGrid">
  <UnstructuredGrid>
  <Piece NumberOfPoints="30"  NumberOfCells="85">
    <Points>
      <DataArray type="Float64" NumberOfComponents="3" format="ascii">
0 0 0
4 0 0
8 0 0
12 0 0
16 0 0
16.0012 2.99695 7.86684e-05
12.0014 2.99469 9.72641e-05
8 2.9958 0.000105061
3.99858 2.99469 9.72641e-05
-0.00117311 2.99695 7.86684e-05
0.00136582 -0.0460335 8
4.00176 -0.0426834 8
8 -0.0485749 8
11.9982 -0.0426834 8
15.9986 -0.0460335 8
15.9985 2.95325 8
11.9969 2.95837 8
8 2.95128 8
4.00306 2.95837 8
0.00152412 2.95325 8
0 0 16
4 0 16
8 0 16
12 0 16
16 0 16
16.0012 2.99695 15.9999
12.0014 2.99469 15.9999
8 2.9958 15.9999
3.99858 2.99469 15.9999
-0.00117311 2.99695 15.9999
      </DataArray>
    </Points>
    <Cells>
      <DataArray type="Int32" Name="connectivity" format="ascii">
0 1
1 2
2 3
3 4
4 5
5 6
6 7
7 8
8 9
9 0
8 1
7 2
6 3
10 11
11 12
12 13
13 14
14 15
15 16
16 17
17 18
18 19
19 10
18 11
17 12
16 13
20 21
21 22
22 23
23 24
24 25
25 26
26 27
27 28
28 29
20 29
28 21
22 27
23 26
20 10
10 0
29 19
19 9
21 11
28 18
11 1
18 8
22 12
27 17
12 2
17 7
23 13
26 16
13 3
16 6
24 14
25 15
15 5
14 4
25 23
29 21
19 11
9 1
15 13
5 3
8 2
6 2
18 12
16 12
28 22
26 22
19 20
19 0
21 18
18 1
22 17
17 2
23 16
16 3
15 24
15 4
20 18
18 0
24 16
16 4
      </DataArray>
      <DataArray type="Int32" Name="offsets" format="ascii">
2
4
6
8
10
12
14
16
18
20
22
24
26
28
30
32
34
36
38
40
42
44
46
48
50
52
54
56
58
60
62
64
66
68
70
72
74
76
78
80
82
84
86
88
90
92
94
96
98
100
102
104
106
108
110
112
114
116
118
120
122
124
126
128
130
132
134
136
138
140
142
144
146
148
150
152
154
156
158
160
162
164
166
168
170
      </DataArray>
      <DataArray type="UInt8" Name="types" format="ascii">
4
4
4
4
4
4
4
4
4
4
4
4
4
4
4
4
4
4
4
4
4
4
4
4
4
4
4
4
4
4
4
4
4
4
4
4
4
4
4
4
4
4
4
4
4
4
4
4
4
4
4
4
4
4
4
4
4
4
4
4
4
4
4
4
4
4
4
4
4
4
4
4
4
4
4
4
4
4
4
4
4
4
4
4
4
      </DataArray>
    </Cells>
    <PointData>
      <DataArray type="Float64" NumberOfComponents="3" Name="Displacement" format="ascii">
0 0 0
0 0 0
0 0 0
0 0 0
0 0 0
0.00117311 -0.00305119 7.86684e-05
0.00141735 -0.00531079 9.72641e-05
-2.75335e-14 -0.00419605 0.000105061
-0.00141735 -0.00531079 9.72641e-05
-0.00117311 -0.00305119 7.86684e-05
0.00136582 -0.0460335 0
0.00176431 -0.0426834 0
1.77636e-14 -0.0485749 0
-0.00176431 -0.0426834 0
-0.00136582 -0.0460335 0
-0.00152412 -0.046754 -1.86517e-14
-0.00305765 -0.0416317 8.88178e-15
5.32907e-15 -0.0487204 1.42109e-14
0.00305765 -0.0416317 1.06581e-14
0.00152412 -0.046754 -1.33227e-14
0 0 0
0 0 0
0 0 0
0 0 0
0 0 0
0.00117311 -0.00305119 -7.86684e-05
0.00141735 -0.00531079 -9.72641e-05
-1.33227e-14 -0.00419605 -0.000105061
-0.00141735 -0.00531079 -9.72641e-05
-0.00117311 -0.00305119 -7.86684e-05
      </DataArray> 
      <DataArray type="Float64" NumberOfComponents="3" Name="Velocity" format="ascii">
0 0 0
0 0 0
0 0 0
0 0 0
0 0 0
-0.000510374 0.00304158 7.23179e-06
0.000383688 -1.84636e-07 -8.02913e-06
8.89688e-16 -0.00262754 2.14661e-05
-0.000383688 -1.84636e-07 -8.02913e-06
0.000510374 0.00304158 7.23179e-06
-0.000162934 -7.38982e-05 0
-0.000261647 -0.00196456 0
-1.4235e-14 -0.00185028 0
0.000261647 -0.00196456 0
0.000162934 -7.38982e-05 0
-0.000691756 -0.00136336 8.89688e-16
-0.000446553 -0.00174211 -5.33813e-15
-1.24556e-14 -0.00207159 -7.1175e-15
0.000446553 -0.00174211 -8.89688e-15
0.000691756 -0.00136336 -1.15659e-14
0 0 0
0 0 0
0 0 0
0 0 0
0 0 0
-0.000510374 0.00304158 -7.23179e-06
0.000383688 -1.84636e-07 8.02913e-06
-8.89688e-16 -0.00262754 -2.14661e-05
-0.000383688 -1.84636e-07 8.02913e-06
0.000510374 0.00304158 -7.23179e-06
      </DataArray> 
      <DataArray type="Float64" NumberOfComponents="3" Name="Acceleration" format="ascii">
0 0 0
0 0 0
0 0 0
0 0 0
0 0 0
0.000615839 -0.0026099 1.54636e-05
-0.000219506 6.72858e-05 -4.00789e-06
1.15463e-14 -0.00183767 7.41542e-06
0.000219506 6.72858e-05 -4.00789e-06
-0.000615839 -0.0026099 1.54636e-05
0.000262094 -0.000624996 0
-0.000334944 0.000169625 0
-1.77636e-14 0.00060751 0
0.000334944 0.000169625 0
-0.000262094 -0.000624996 0
-2.81634e-05 -0.00019686 9.76996e-15
-0.000169952 -0.000495798 -1.77636e-15
1.77636e-15 -0.000754141 -4.18096e-29
0.000169952 -0.000495798 -3.55271e-15
2.81634e-05 -0.00019686 4.44089e-15
0 0 0
0 0 0
0 0 0
0 0 0
0 0 0
0.000615839 -0.0026099 -1.54636e-05
-0.000219506 6.72858e-05 4.00789e-06
4.44089e-15 -0.00183767 -7.41542e-06
0.000219506 6.72858e-05 4.00789e-06
-0.000615839 -0.0026099 -1.54636e-05
      </DataArray> 
    </PointData>
    <CellData>
    </CellData>
  </Piece>
  </UnstructuredGrid>
</VTKFile>
