<?xml version="1.0"?>
<VTKFile type="UnstructuredGrid">
  <UnstructuredGrid>
  <Piece NumberOfPoints="30"  NumberOfCells="85">
    <Points>
      <DataArray type="Float64" NumberOfComponents="3" format="ascii">
0 0 0
4 0 0
8 0 0
12 0 0
16 0 0
16.0009 2.9925 4.78399e-05
11.9996 2.99713 0.000103903
8 2.99922 5.73303e-05
4.00039 2.99713 0.000103903
-0.000858503 2.9925 4.78399e-05
0.000678808 -0.0406909 8
4.00046 -0.0475665 8
8 -0.0567641 8
11.9995 -0.0475665 8
15.9993 -0.0406909 8
15.9942 2.95717 8
11.9942 2.95326 8
8 2.94203 8
4.00584 2.95326 8
0.00580895 2.95717 8
0 0 16
4 0 16
8 0 16
12 0 16
16 0 16
16.0009 2.9925 16
11.9996 2.99713 15.9999
8 2.99922 15.9999
4.00039 2.99713 15.9999
-0.000858503 2.9925 16
      </DataArray>
    </Points>
    <Cells>
      <DataArray type="Int32" Name="connectivity" format="ascii">
0 1
1 2
2 3
3 4
4 5
5 6
6 7
7 8
8 9
9 0
8 1
7 2
6 3
10 11
11 12
12 13
13 14
14 15
15 16
16 17
17 18
18 19
19 10
18 11
17 12
16 13
20 21
21 22
22 23
23 24
24 25
25 26
26 27
27 28
28 29
20 29
28 21
22 27
23 26
20 10
10 0
29 19
19 9
21 11
28 18
11 1
18 8
22 12
27 17
12 2
17 7
23 13
26 16
13 3
16 6
24 14
25 15
15 5
14 4
25 23
29 21
19 11
9 1
15 13
5 3
8 2
6 2
18 12
16 12
28 22
26 22
19 20
19 0
21 18
18 1
22 17
17 2
23 16
16 3
15 24
15 4
20 18
18 0
24 16
16 4
      </DataArray>
      <DataArray type="Int32" Name="offsets" format="ascii">
2
4
6
8
10
12
14
16
18
20
22
24
26
28
30
32
34
36
38
40
42
44
46
48
50
52
54
56
58
60
62
64
66
68
70
72
74
76
78
80
82
84
86
88
90
92
94
96
98
100
102
104
106
108
110
112
114
116
118
120
122
124
126
128
130
132
134
136
138
140
142
144
146
148
150
152
154
156
158
160
162
164
166
168
170
      </DataArray>
      <DataArray type="UInt8" Name="types" format="ascii">
4
4
4
4
4
4
4
4
4
4
4
4
4
4
4
4
4
4
4
4
4
4
4
4
4
4
4
4
4
4
4
4
4
4
4
4
4
4
4
4
4
4
4
4
4
4
4
4
4
4
4
4
4
4
4
4
4
4
4
4
4
4
4
4
4
4
4
4
4
4
4
4
4
4
4
4
4
4
4
4
4
4
4
4
4
      </DataArray>
    </Cells>
    <PointData>
      <DataArray type="Float64" NumberOfComponents="3" Name="Displacement" format="ascii">
0 0 0
0 0 0
0 0 0
0 0 0
0 0 0
0.000858503 -0.00750063 4.78399e-05
-0.00039121 -0.00286858 0.000103903
1.77636e-15 -0.000777267 5.73303e-05
0.00039121 -0.00286858 0.000103903
-0.000858503 -0.00750063 4.78399e-05
0.000678808 -0.0406909 0
0.000455641 -0.0475665 0
2.66454e-14 -0.0567641 0
-0.000455641 -0.0475665 0
-0.000678808 -0.0406909 0
-0.00580895 -0.0428337 5.32907e-15
-0.00584248 -0.0467392 -7.99361e-15
1.77636e-14 -0.0579713 -2.66454e-15
0.00584248 -0.0467392 -7.99361e-15
0.00580895 -0.0428337 8.88178e-15
0 0 0
0 0 0
0 0 0
0 0 0
0 0 0
0.000858503 -0.00750063 -4.78399e-05
-0.00039121 -0.00286858 -0.000103903
5.32907e-15 -0.000777267 -5.73303e-05
0.00039121 -0.00286858 -0.000103903
-0.000858503 -0.00750063 -4.78399e-05
      </DataArray> 
      <DataArray type="Float64" NumberOfComponents="3" Name="Velocity" format="ascii">
0 0 0
0 0 0
0 0 0
0 0 0
0 0 0
0.00163433 -0.00559712 1.03868e-05
0.000294871 -0.00195043 -2.58457e-05
-3.55875e-15 -0.00219766 -8.33743e-05
-0.000294871 -0.00195043 -2.58457e-05
-0.00163433 -0.00559712 1.03868e-05
-0.00170355 0.00664321 0
0.000302699 0.00795518 0
-5.33813e-15 0.0110506 0
-0.000302699 0.00795518 0
0.00170355 0.00664321 0
0.00188988 0.00552973 3.55875e-15
0.000934671 0.0072591 -8.89688e-16
1.77938e-15 0.00855387 8.89688e-16
-0.000934671 0.0072591 -8.89688e-16
-0.00188988 0.00552973 0
0 0 0
0 0 0
0 0 0
0 0 0
0 0 0
0.00163433 -0.00559712 -1.03868e-05
0.000294871 -0.00195043 2.58457e-05
-3.55875e-15 -0.00219766 8.33743e-05
-0.000294871 -0.00195043 2.58457e-05
-0.00163433 -0.00559712 -1.03868e-05
      </DataArray> 
      <DataArray type="Float64" NumberOfComponents="3" Name="Acceleration" format="ascii">
0 0 0
0 0 0
0 0 0
0 0 0
0 0 0
0.000877496 0.00293324 1.24333e-05
0.0018378 -0.00194935 6.00378e-06
1.77636e-15 -0.00543032 5.87478e-05
-0.0018378 -0.00194935 6.00378e-06
-0.000877496 0.00293324 1.24333e-05
-0.000131234 -0.00191007 0
0.000322529 0.000133345 0
-1.77636e-15 -0.000211906 0
-0.000322529 0.000133345 0
0.000131234 -0.00191007 0
0.000274051 0.000102687 1.77636e-15
0.000115664 -0.000313282 -8.88178e-16
0 -2.08534e-05 8.88178e-16
-0.000115664 -0.000313282 -8.88178e-16
-0.000274051 0.000102687 -1.77636e-15
0 0 0
0 0 0
0 0 0
0 0 0
0 0 0
0.000877496 0.00293324 -1.24333e-05
0.0018378 -0.00194935 -6.00378e-06
-1.77636e-15 -0.00543032 -5.87478e-05
-0.0018378 -0.00194935 -6.00378e-06
-0.000877496 0.00293324 -1.24333e-05
      </DataArray> 
    </PointData>
    <CellData>
    </CellData>
  </Piece>
  </UnstructuredGrid>
</VTKFile>
