<?xml version="1.0"?>
<VTKFile type="UnstructuredGrid">
  <UnstructuredGrid>
  <Piece NumberOfPoints="30"  NumberOfCells="85">
    <Points>
      <DataArray type="Float64" NumberOfComponents="3" format="ascii">
0 0 0
4 0 0
8 0 0
12 0 0
16 0 0
16.0028 2.99505 0.000193482
12.0022 2.99382 0.000157273
8 2.99485 0.000175478
3.99777 2.99382 0.000157273
-0.00275128 2.99505 0.000193482
0.00222762 -0.0588473 8
4.00167 -0.0538466 8
8 -0.0607749 8
11.9983 -0.0538466 8
15.9978 -0.0588473 8
15.9974 2.94176 8
11.9957 2.94724 8
8 2.93908 8
4.00429 2.94724 8
0.00262993 2.94176 8
0 0 16
4 0 16
8 0 16
12 0 16
16 0 16
16.0028 2.99505 15.9998
12.0022 2.99382 15.9998
8 2.99485 15.9998
3.99777 2.99382 15.9998
-0.00275128 2.99505 15.9998
      </DataArray>
    </Points>
    <Cells>
      <DataArray type="Int32" Name="connectivity" format="ascii">
0 1
1 2
2 3
3 4
4 5
5 6
6 7
7 8
8 9
9 0
8 1
7 2
6 3
10 11
11 12
12 13
13 14
14 15
15 16
16 17
17 18
18 19
19 10
18 11
17 12
16 13
20 21
21 22
22 23
23 24
24 25
25 26
26 27
27 28
28 29
20 29
28 21
22 27
23 26
20 10
10 0
29 19
19 9
21 11
28 18
11 1
18 8
22 12
27 17
12 2
17 7
23 13
26 16
13 3
16 6
24 14
25 15
15 5
14 4
25 23
29 21
19 11
9 1
15 13
5 3
8 2
6 2
18 12
16 12
28 22
26 22
19 20
19 0
21 18
18 1
22 17
17 2
23 16
16 3
15 24
15 4
20 18
18 0
24 16
16 4
      </DataArray>
      <DataArray type="Int32" Name="offsets" format="ascii">
2
4
6
8
10
12
14
16
18
20
22
24
26
28
30
32
34
36
38
40
42
44
46
48
50
52
54
56
58
60
62
64
66
68
70
72
74
76
78
80
82
84
86
88
90
92
94
96
98
100
102
104
106
108
110
112
114
116
118
120
122
124
126
128
130
132
134
136
138
140
142
144
146
148
150
152
154
156
158
160
162
164
166
168
170
      </DataArray>
      <DataArray type="UInt8" Name="types" format="ascii">
4
4
4
4
4
4
4
4
4
4
4
4
4
4
4
4
4
4
4
4
4
4
4
4
4
4
4
4
4
4
4
4
4
4
4
4
4
4
4
4
4
4
4
4
4
4
4
4
4
4
4
4
4
4
4
4
4
4
4
4
4
4
4
4
4
4
4
4
4
4
4
4
4
4
4
4
4
4
4
4
4
4
4
4
4
      </DataArray>
    </Cells>
    <PointData>
      <DataArray type="Float64" NumberOfComponents="3" Name="Displacement" format="ascii">
0 0 0
0 0 0
0 0 0
0 0 0
0 0 0
0.00275128 -0.00495275 0.000193482
0.00222946 -0.00617797 0.000157273
8.88178e-15 -0.00515316 0.000175478
-0.00222946 -0.00617797 0.000157273
-0.00275128 -0.00495275 0.000193482
0.00222762 -0.0588473 0
0.00167445 -0.0538466 0
-4.08562e-14 -0.0607749 0
-0.00167445 -0.0538466 0
-0.00222762 -0.0588473 0
-0.00262993 -0.058238 -6.21725e-15
-0.00428852 -0.0527592 1.77636e-15
-7.99361e-15 -0.0609168 -1.24345e-14
0.00428852 -0.0527592 5.32907e-15
0.00262993 -0.058238 -9.76996e-15
0 0 0
0 0 0
0 0 0
0 0 0
0 0 0
0.00275128 -0.00495275 -0.000193482
0.00222946 -0.00617797 -0.000157273
3.55271e-15 -0.00515316 -0.000175478
-0.00222946 -0.00617797 -0.000157273
-0.00275128 -0.00495275 -0.000193482
      </DataArray> 
      <DataArray type="Float64" NumberOfComponents="3" Name="Velocity" format="ascii">
0 0 0
0 0 0
0 0 0
0 0 0
0 0 0
-0.00120184 -0.00170899 1.10155e-05
-0.00122973 -0.000135017 -4.84882e-06
-5.33813e-15 0.00193689 2.19238e-06
0.00122973 -0.000135017 -4.84882e-06
0.00120184 -0.00170899 1.10155e-05
-0.00029199 -0.000750632 0
7.34775e-05 -0.00112783 0
-1.24556e-14 -0.00191014 0
-7.34775e-05 -0.00112783 0
0.00029199 -0.000750632 0
-0.000226041 -0.000492342 -9.78656e-15
-0.000131815 -0.00110907 7.88861e-31
-2.66906e-15 -0.00108054 -1.60144e-14
0.000131815 -0.00110907 1.57772e-30
0.000226041 -0.000492342 -6.22781e-15
0 0 0
0 0 0
0 0 0
0 0 0
0 0 0
-0.00120184 -0.00170899 -1.10155e-05
-0.00122973 -0.000135017 4.84882e-06
1.77938e-15 0.00193689 -2.19238e-06
0.00122973 -0.000135017 4.84882e-06
0.00120184 -0.00170899 -1.10155e-05
      </DataArray> 
      <DataArray type="Float64" NumberOfComponents="3" Name="Acceleration" format="ascii">
0 0 0
0 0 0
0 0 0
0 0 0
0 0 0
-8.81436e-06 -0.000723757 -5.08422e-06
-0.000286695 0.00074746 -5.59042e-06
-8.88178e-15 -0.000871703 7.73293e-06
0.000286695 0.00074746 -5.59042e-06
8.81436e-06 -0.000723757 -5.08422e-06
-0.000356279 0.000536559 0
0.000495096 -7.1278e-05 0
-1.77636e-15 0.000478161 0
-0.000495096 -7.1278e-05 0
0.000356279 0.000536559 0
0.000169676 -0.000192479 7.99361e-15
-6.25551e-05 -3.4364e-05 -1.77636e-15
-7.99361e-15 -0.000312971 5.32907e-15
6.25551e-05 -3.4364e-05 -5.32907e-15
-0.000169676 -0.000192479 4.44089e-15
0 0 0
0 0 0
0 0 0
0 0 0
0 0 0
-8.81436e-06 -0.000723757 5.08422e-06
-0.000286695 0.00074746 5.59042e-06
7.10543e-15 -0.000871703 -7.73293e-06
0.000286695 0.00074746 5.59042e-06
8.81436e-06 -0.000723757 5.08422e-06
      </DataArray> 
    </PointData>
    <CellData>
    </CellData>
  </Piece>
  </UnstructuredGrid>
</VTKFile>
