<?xml version="1.0"?>
<VTKFile type="UnstructuredGrid">
  <UnstructuredGrid>
  <Piece NumberOfPoints="30"  NumberOfCells="85">
    <Points>
      <DataArray type="Float64" NumberOfComponents="3" format="ascii">
0 0 0
4 0 0
8 0 0
12 0 0
16 0 0
15.9994 2.99288 0.000310296
11.9998 2.99177 0.000187144
8 2.98824 0.000257345
4.00016 2.99177 0.000187144
0.000636381 2.99288 0.000310296
0.0025698 -0.0785193 8
4.0036 -0.0666183 8
8 -0.07091 8
11.9964 -0.0666183 8
15.9974 -0.0785193 8
15.9982 2.92143 8
11.9953 2.93464 8
8 2.92727 8
4.00467 2.93464 8
0.00175221 2.92143 8
0 0 16
4 0 16
8 0 16
12 0 16
16 0 16
15.9994 2.99288 15.9997
11.9998 2.99177 15.9998
8 2.98824 15.9997
4.00016 2.99177 15.9998
0.000636381 2.99288 15.9997
      </DataArray>
    </Points>
    <Cells>
      <DataArray type="Int32" Name="connectivity" format="ascii">
0 1
1 2
2 3
3 4
4 5
5 6
6 7
7 8
8 9
9 0
8 1
7 2
6 3
10 11
11 12
12 13
13 14
14 15
15 16
16 17
17 18
18 19
19 10
18 11
17 12
16 13
20 21
21 22
22 23
23 24
24 25
25 26
26 27
27 28
28 29
20 29
28 21
22 27
23 26
20 10
10 0
29 19
19 9
21 11
28 18
11 1
18 8
22 12
27 17
12 2
17 7
23 13
26 16
13 3
16 6
24 14
25 15
15 5
14 4
25 23
29 21
19 11
9 1
15 13
5 3
8 2
6 2
18 12
16 12
28 22
26 22
19 20
19 0
21 18
18 1
22 17
17 2
23 16
16 3
15 24
15 4
20 18
18 0
24 16
16 4
      </DataArray>
      <DataArray type="Int32" Name="offsets" format="ascii">
2
4
6
8
10
12
14
16
18
20
22
24
26
28
30
32
34
36
38
40
42
44
46
48
50
52
54
56
58
60
62
64
66
68
70
72
74
76
78
80
82
84
86
88
90
92
94
96
98
100
102
104
106
108
110
112
114
116
118
120
122
124
126
128
130
132
134
136
138
140
142
144
146
148
150
152
154
156
158
160
162
164
166
168
170
      </DataArray>
      <DataArray type="UInt8" Name="types" format="ascii">
4
4
4
4
4
4
4
4
4
4
4
4
4
4
4
4
4
4
4
4
4
4
4
4
4
4
4
4
4
4
4
4
4
4
4
4
4
4
4
4
4
4
4
4
4
4
4
4
4
4
4
4
4
4
4
4
4
4
4
4
4
4
4
4
4
4
4
4
4
4
4
4
4
4
4
4
4
4
4
4
4
4
4
4
4
      </DataArray>
    </Cells>
    <PointData>
      <DataArray type="Float64" NumberOfComponents="3" Name="Displacement" format="ascii">
0 0 0
0 0 0
0 0 0
0 0 0
0 0 0
-0.000636381 -0.00712242 0.000310296
-0.000163322 -0.0082329 0.000187144
0 -0.0117605 0.000257345
0.000163322 -0.0082329 0.000187144
0.000636381 -0.00712242 0.000310296
0.0025698 -0.0785193 0
0.00359884 -0.0666183 0
3.55271e-15 -0.07091 0
-0.00359884 -0.0666183 0
-0.0025698 -0.0785193 0
-0.00175221 -0.0785687 3.55271e-15
-0.00466941 -0.0653601 -2.66454e-15
3.55271e-15 -0.0727314 -6.21725e-15
0.00466941 -0.0653601 -2.66454e-15
0.00175221 -0.0785687 3.55271e-15
0 0 0
0 0 0
0 0 0
0 0 0
0 0 0
-0.000636381 -0.00712242 -0.000310296
-0.000163322 -0.0082329 -0.000187144
0 -0.0117605 -0.000257345
0.000163322 -0.0082329 -0.000187144
0.000636381 -0.00712242 -0.000310296
      </DataArray> 
      <DataArray type="Float64" NumberOfComponents="3" Name="Velocity" format="ascii">
0 0 0
0 0 0
0 0 0
0 0 0
0 0 0
0.00395619 0.00230623 8.62917e-05
0.00310149 -5.6233e-05 5.95294e-05
5.33813e-15 0.000872667 5.62196e-05
-0.00310149 -5.6233e-05 5.95294e-05
-0.00395619 0.00230623 8.62917e-05
0.000454984 -0.00928468 0
0.000620806 -0.00885769 0
0 -0.00902729 0
-0.000620806 -0.00885769 0
-0.000454984 -0.00928468 0
-0.000770674 -0.00715211 1.77938e-15
-0.000549819 -0.00775303 -8.89688e-16
1.77938e-15 -0.00726804 -2.66906e-15
0.000549819 -0.00775303 -8.89688e-16
0.000770674 -0.00715211 1.77938e-15
0 0 0
0 0 0
0 0 0
0 0 0
0 0 0
0.00395619 0.00230623 -8.62917e-05
0.00310149 -5.6233e-05 -5.95294e-05
5.33813e-15 0.000872667 -5.62196e-05
-0.00310149 -5.6233e-05 -5.95294e-05
-0.00395619 0.00230623 -8.62917e-05
      </DataArray> 
      <DataArray type="Float64" NumberOfComponents="3" Name="Acceleration" format="ascii">
0 0 0
0 0 0
0 0 0
0 0 0
0 0 0
0.00261426 0.00284203 3.54322e-06
0.00180576 0.00338754 5.69049e-06
-3.55271e-15 0.00603392 -9.25367e-06
-0.00180576 0.00338754 5.69049e-06
-0.00261426 0.00284203 3.54322e-06
0.000679214 3.5892e-05 0
-0.000474913 -0.000413279 0
3.55271e-15 -0.00106947 0
0.000474913 -0.000413279 0
-0.000679214 3.5892e-05 0
0.000235179 0.00124501 0
0.000259206 0.000674865 8.88178e-16
0 0.000930978 8.88178e-16
-0.000259206 0.000674865 8.88178e-16
-0.000235179 0.00124501 0
0 0 0
0 0 0
0 0 0
0 0 0
0 0 0
0.00261426 0.00284203 -3.54322e-06
0.00180576 0.00338754 -5.69049e-06
-3.55271e-15 0.00603392 9.25367e-06
-0.00180576 0.00338754 -5.69049e-06
-0.00261426 0.00284203 -3.54322e-06
      </DataArray> 
    </PointData>
    <CellData>
    </CellData>
  </Piece>
  </UnstructuredGrid>
</VTKFile>
