<?xml version="1.0"?>
<VTKFile type="UnstructuredGrid">
  <UnstructuredGrid>
  <Piece NumberOfPoints="30"  NumberOfCells="85">
    <Points>
      <DataArray type="Float64" NumberOfComponents="3" format="ascii">
0 0 0
4 0 0
8 0 0
12 0 0
16 0 0
16.0018 2.99962 0.000620658
12.0021 2.99636 0.000682993
8 2.99552 0.00086034
3.99789 2.99636 0.000682993
-0.00180803 2.99962 0.000620658
0.000911277 -0.105617 8
4.00102 -0.1063 8
8 -0.122556 8
11.999 -0.1063 8
15.9991 -0.105617 8
15.9919 2.89747 8
11.9899 2.89756 8
8 2.87978 8
4.01007 2.89756 8
0.00810172 2.89747 8
0 0 16
4 0 16
8 0 16
12 0 16
16 0 16
16.0018 2.99962 15.9994
12.0021 2.99636 15.9993
8 2.99552 15.9991
3.99789 2.99636 15.9993
-0.00180803 2.99962 15.9994
      </DataArray>
    </Points>
    <Cells>
      <DataArray type="Int32" Name="connectivity" format="ascii">
0 1
1 2
2 3
3 4
4 5
5 6
6 7
7 8
8 9
9 0
8 1
7 2
6 3
10 11
11 12
12 13
13 14
14 15
15 16
16 17
17 18
18 19
19 10
18 11
17 12
16 13
20 21
21 22
22 23
23 24
24 25
25 26
26 27
27 28
28 29
20 29
28 21
22 27
23 26
20 10
10 0
29 19
19 9
21 11
28 18
11 1
18 8
22 12
27 17
12 2
17 7
23 13
26 16
13 3
16 6
24 14
25 15
15 5
14 4
25 23
29 21
19 11
9 1
15 13
5 3
8 2
6 2
18 12
16 12
28 22
26 22
19 20
19 0
21 18
18 1
22 17
17 2
23 16
16 3
15 24
15 4
20 18
18 0
24 16
16 4
      </DataArray>
      <DataArray type="Int32" Name="offsets" format="ascii">
2
4
6
8
10
12
14
16
18
20
22
24
26
28
30
32
34
36
38
40
42
44
46
48
50
52
54
56
58
60
62
64
66
68
70
72
74
76
78
80
82
84
86
88
90
92
94
96
98
100
102
104
106
108
110
112
114
116
118
120
122
124
126
128
130
132
134
136
138
140
142
144
146
148
150
152
154
156
158
160
162
164
166
168
170
      </DataArray>
      <DataArray type="UInt8" Name="types" format="ascii">
4
4
4
4
4
4
4
4
4
4
4
4
4
4
4
4
4
4
4
4
4
4
4
4
4
4
4
4
4
4
4
4
4
4
4
4
4
4
4
4
4
4
4
4
4
4
4
4
4
4
4
4
4
4
4
4
4
4
4
4
4
4
4
4
4
4
4
4
4
4
4
4
4
4
4
4
4
4
4
4
4
4
4
4
4
      </DataArray>
    </Cells>
    <PointData>
      <DataArray type="Float64" NumberOfComponents="3" Name="Displacement" format="ascii">
0 0 0
0 0 0
0 0 0
0 0 0
0 0 0
0.00180803 -0.000380006 0.000620658
0.00211323 -0.00363544 0.000682993
-5.32907e-15 -0.00447684 0.00086034
-0.00211323 -0.00363544 0.000682993
-0.00180803 -0.000380006 0.000620658
0.000911277 -0.105617 0
0.00102098 -0.1063 0
1.77636e-14 -0.122556 0
-0.00102098 -0.1063 0
-0.000911277 -0.105617 0
-0.00810172 -0.102529 -5.32907e-15
-0.0100717 -0.102443 -1.77636e-15
8.88178e-15 -0.120215 5.32907e-15
0.0100717 -0.102443 -1.77636e-15
0.00810172 -0.102529 -7.10543e-15
0 0 0
0 0 0
0 0 0
0 0 0
0 0 0
0.00180803 -0.000380006 -0.000620658
0.00211323 -0.00363544 -0.000682993
-8.88178e-15 -0.00447684 -0.00086034
-0.00211323 -0.00363544 -0.000682993
-0.00180803 -0.000380006 -0.000620658
      </DataArray> 
      <DataArray type="Float64" NumberOfComponents="3" Name="Velocity" format="ascii">
0 0 0
0 0 0
0 0 0
0 0 0
0 0 0
0.0037734 -0.00125791 -3.1721e-05
0.00202673 0.00175488 -4.62801e-05
-5.36171e-33 0.00564782 -5.16755e-05
-0.00202673 0.00175488 -4.62801e-05
-0.0037734 -0.00125791 -3.1721e-05
0.000299517 0.00387336 0
-0.000929852 0.00149666 0
3.55875e-15 -3.49007e-05 0
0.000929852 0.00149666 0
-0.000299517 0.00387336 0
-0.000888502 0.00315224 -3.55875e-15
-0.000484716 0.00205527 1.77938e-15
3.55875e-15 0.000781292 -1.77938e-15
0.000484716 0.00205527 1.77938e-15
0.000888502 0.00315224 -1.77938e-15
0 0 0
0 0 0
0 0 0
0 0 0
0 0 0
0.0037734 -0.00125791 3.1721e-05
0.00202673 0.00175488 4.62801e-05
-1.18329e-30 0.00564782 5.16755e-05
-0.00202673 0.00175488 4.62801e-05
-0.0037734 -0.00125791 3.1721e-05
      </DataArray> 
      <DataArray type="Float64" NumberOfComponents="3" Name="Acceleration" format="ascii">
0 0 0
0 0 0
0 0 0
0 0 0
0 0 0
-0.000387385 -0.0060017 1.43593e-05
-0.00133018 -0.00180472 -1.86872e-05
8.88178e-15 -0.00160823 -7.49506e-06
0.00133018 -0.00180472 -1.86872e-05
0.000387385 -0.0060017 1.43593e-05
7.55968e-05 0.00267194 0
0.000517184 0.00165328 0
-3.55271e-15 0.00286067 0
-0.000517184 0.00165328 0
-7.55968e-05 0.00267194 0
6.58035e-05 0.000239374 1.77636e-15
-0.000139839 0.000739616 1.77636e-15
1.77636e-15 0.000641483 -1.77636e-15
0.000139839 0.000739616 1.77636e-15
-6.58035e-05 0.000239374 0
0 0 0
0 0 0
0 0 0
0 0 0
0 0 0
-0.000387385 -0.0060017 -1.43593e-05
-0.00133018 -0.00180472 1.86872e-05
1.24345e-14 -0.00160823 7.49506e-06
0.00133018 -0.00180472 1.86872e-05
0.000387385 -0.0060017 -1.43593e-05
      </DataArray> 
    </PointData>
    <CellData>
    </CellData>
  </Piece>
  </UnstructuredGrid>
</VTKFile>
