<?xml version="1.0"?>
<VTKFile type="UnstructuredGrid">
  <UnstructuredGrid>
  <Piece NumberOfPoints="30"  NumberOfCells="85">
    <Points>
      <DataArray type="Float64" NumberOfComponents="3" format="ascii">
0 0 0
4 0 0
8 0 0
12 0 0
16 0 0
16.0026 2.99465 5.19313e-05
12.0017 2.99579 2.2564e-05
8 2.99384 6.43243e-05
3.9983 2.99579 2.2564e-05
-0.00262903 2.99465 5.19313e-05
0.00195639 -0.0426563 8
4.00155 -0.0376159 8
8 -0.0419992 8
11.9985 -0.0376159 8
15.998 -0.0426563 8
15.999 2.95768 8
11.9976 2.9624 8
8 2.95789 8
4.00235 2.9624 8
0.00104005 2.95768 8
0 0 16
4 0 16
8 0 16
12 0 16
16 0 16
16.0026 2.99465 15.9999
12.0017 2.99579 16
8 2.99384 15.9999
3.9983 2.99579 16
-0.00262903 2.99465 15.9999
      </DataArray>
    </Points>
    <Cells>
      <DataArray type="Int32" Name="connectivity" format="ascii">
0 1
1 2
2 3
3 4
4 5
5 6
6 7
7 8
8 9
9 0
8 1
7 2
6 3
10 11
11 12
12 13
13 14
14 15
15 16
16 17
17 18
18 19
19 10
18 11
17 12
16 13
20 21
21 22
22 23
23 24
24 25
25 26
26 27
27 28
28 29
20 29
28 21
22 27
23 26
20 10
10 0
29 19
19 9
21 11
28 18
11 1
18 8
22 12
27 17
12 2
17 7
23 13
26 16
13 3
16 6
24 14
25 15
15 5
14 4
25 23
29 21
19 11
9 1
15 13
5 3
8 2
6 2
18 12
16 12
28 22
26 22
19 20
19 0
21 18
18 1
22 17
17 2
23 16
16 3
15 24
15 4
20 18
18 0
24 16
16 4
      </DataArray>
      <DataArray type="Int32" Name="offsets" format="ascii">
2
4
6
8
10
12
14
16
18
20
22
24
26
28
30
32
34
36
38
40
42
44
46
48
50
52
54
56
58
60
62
64
66
68
70
72
74
76
78
80
82
84
86
88
90
92
94
96
98
100
102
104
106
108
110
112
114
116
118
120
122
124
126
128
130
132
134
136
138
140
142
144
146
148
150
152
154
156
158
160
162
164
166
168
170
      </DataArray>
      <DataArray type="UInt8" Name="types" format="ascii">
4
4
4
4
4
4
4
4
4
4
4
4
4
4
4
4
4
4
4
4
4
4
4
4
4
4
4
4
4
4
4
4
4
4
4
4
4
4
4
4
4
4
4
4
4
4
4
4
4
4
4
4
4
4
4
4
4
4
4
4
4
4
4
4
4
4
4
4
4
4
4
4
4
4
4
4
4
4
4
4
4
4
4
4
4
      </DataArray>
    </Cells>
    <PointData>
      <DataArray type="Float64" NumberOfComponents="3" Name="Displacement" format="ascii">
0 0 0
0 0 0
0 0 0
0 0 0
0 0 0
0.00262903 -0.00534544 5.19313e-05
0.00169931 -0.00420641 2.2564e-05
5.32907e-15 -0.00616312 6.43243e-05
-0.00169931 -0.00420641 2.2564e-05
-0.00262903 -0.00534544 5.19313e-05
0.00195639 -0.0426563 0
0.00154617 -0.0376159 0
-2.13163e-14 -0.0419992 0
-0.00154617 -0.0376159 0
-0.00195639 -0.0426563 0
-0.00104005 -0.0423249 1.59872e-14
-0.00235389 -0.037597 1.77636e-15
-1.15463e-14 -0.0421078 -1.5099e-14
0.00235389 -0.037597 -8.88178e-15
0.00104005 -0.0423249 8.88178e-15
0 0 0
0 0 0
0 0 0
0 0 0
0 0 0
0.00262903 -0.00534544 -5.19313e-05
0.00169931 -0.00420641 -2.2564e-05
3.55271e-15 -0.00616312 -6.43243e-05
-0.00169931 -0.00420641 -2.2564e-05
-0.00262903 -0.00534544 -5.19313e-05
      </DataArray> 
      <DataArray type="Float64" NumberOfComponents="3" Name="Velocity" format="ascii">
0 0 0
0 0 0
0 0 0
0 0 0
0 0 0
-0.00117449 0.00453503 -3.58688e-06
2.90003e-05 0.00022285 4.16502e-06
1.4235e-14 0.00371436 -1.06351e-05
-2.90003e-05 0.00022285 4.16502e-06
0.00117449 0.00453503 -3.58688e-06
-3.62621e-05 -0.00201095 0
-0.000218751 -0.00169326 0
-1.57772e-30 -0.00141026 0
0.000218751 -0.00169326 0
3.62621e-05 -0.00201095 0
2.81576e-05 -0.00309516 1.77938e-15
-0.000294891 -0.00199113 -5.33813e-15
-6.22781e-15 -0.00269083 4.44844e-15
0.000294891 -0.00199113 3.55875e-15
-2.81576e-05 -0.00309516 -1.77938e-15
0 0 0
0 0 0
0 0 0
0 0 0
0 0 0
-0.00117449 0.00453503 3.58688e-06
2.90003e-05 0.00022285 -4.16502e-06
1.4235e-14 0.00371436 1.06351e-05
-2.90003e-05 0.00022285 -4.16502e-06
0.00117449 0.00453503 3.58688e-06
      </DataArray> 
      <DataArray type="Float64" NumberOfComponents="3" Name="Acceleration" format="ascii">
0 0 0
0 0 0
0 0 0
0 0 0
0 0 0
-0.000154999 -0.000263039 1.30144e-05
-1.47939e-05 -0.00111707 1.50566e-05
-8.88178e-15 0.00017342 6.68038e-06
1.47939e-05 -0.00111707 1.50566e-05
0.000154999 -0.000263039 1.30144e-05
-0.000265234 0.000304562 0
0.000194861 -0.000516607 0
1.42109e-14 0.000247973 0
-0.000194861 -0.000516607 0
0.000265234 0.000304562 0
7.58921e-05 -0.000785362 -1.77636e-15
-0.000160653 -0.000242244 -1.77636e-15
-8.88178e-16 -0.0010121 2.66454e-15
0.000160653 -0.000242244 -1.77636e-15
-7.58921e-05 -0.000785362 1.77636e-15
0 0 0
0 0 0
0 0 0
0 0 0
0 0 0
-0.000154999 -0.000263039 -1.30144e-05
-1.47939e-05 -0.00111707 -1.50566e-05
3.55271e-15 0.00017342 -6.68038e-06
1.47939e-05 -0.00111707 -1.50566e-05
0.000154999 -0.000263039 -1.30144e-05
      </DataArray> 
    </PointData>
    <CellData>
    </CellData>
  </Piece>
  </UnstructuredGrid>
</VTKFile>
