<?xml version="1.0"?>
<VTKFile type="UnstructuredGrid">
  <UnstructuredGrid>
  <Piece NumberOfPoints="30"  NumberOfCells="85">
    <Points>
      <DataArray type="Float64" NumberOfComponents="3" format="ascii">
0 0 0
4 0 0
8 0 0
12 0 0
16 0 0
16.0033 2.99599 0.000337633
12.0023 2.99694 0.000400555
8 2.99137 0.000567783
3.99774 2.99694 0.000400555
-0.00333596 2.99599 0.000337633
0.000863559 -0.0773356 8
4.00054 -0.0824666 8
8 -0.0974842 8
11.9995 -0.0824666 8
15.9991 -0.0773356 8
15.9914 2.92396 8
11.9903 2.91926 8
8 2.90088 8
4.00972 2.91926 8
0.0085614 2.92396 8
0 0 16
4 0 16
8 0 16
12 0 16
16 0 16
16.0033 2.99599 15.9997
12.0023 2.99694 15.9996
8 2.99137 15.9994
3.99774 2.99694 15.9996
-0.00333596 2.99599 15.9997
      </DataArray>
    </Points>
    <Cells>
      <DataArray type="Int32" Name="connectivity" format="ascii">
0 1
1 2
2 3
3 4
4 5
5 6
6 7
7 8
8 9
9 0
8 1
7 2
6 3
10 11
11 12
12 13
13 14
14 15
15 16
16 17
17 18
18 19
19 10
18 11
17 12
16 13
20 21
21 22
22 23
23 24
24 25
25 26
26 27
27 28
28 29
20 29
28 21
22 27
23 26
20 10
10 0
29 19
19 9
21 11
28 18
11 1
18 8
22 12
27 17
12 2
17 7
23 13
26 16
13 3
16 6
24 14
25 15
15 5
14 4
25 23
29 21
19 11
9 1
15 13
5 3
8 2
6 2
18 12
16 12
28 22
26 22
19 20
19 0
21 18
18 1
22 17
17 2
23 16
16 3
15 24
15 4
20 18
18 0
24 16
16 4
      </DataArray>
      <DataArray type="Int32" Name="offsets" format="ascii">
2
4
6
8
10
12
14
16
18
20
22
24
26
28
30
32
34
36
38
40
42
44
46
48
50
52
54
56
58
60
62
64
66
68
70
72
74
76
78
80
82
84
86
88
90
92
94
96
98
100
102
104
106
108
110
112
114
116
118
120
122
124
126
128
130
132
134
136
138
140
142
144
146
148
150
152
154
156
158
160
162
164
166
168
170
      </DataArray>
      <DataArray type="UInt8" Name="types" format="ascii">
4
4
4
4
4
4
4
4
4
4
4
4
4
4
4
4
4
4
4
4
4
4
4
4
4
4
4
4
4
4
4
4
4
4
4
4
4
4
4
4
4
4
4
4
4
4
4
4
4
4
4
4
4
4
4
4
4
4
4
4
4
4
4
4
4
4
4
4
4
4
4
4
4
4
4
4
4
4
4
4
4
4
4
4
4
      </DataArray>
    </Cells>
    <PointData>
      <DataArray type="Float64" NumberOfComponents="3" Name="Displacement" format="ascii">
0 0 0
0 0 0
0 0 0
0 0 0
0 0 0
0.00333596 -0.00400786 0.000337633
0.00225747 -0.00306402 0.000400555
8.88178e-15 -0.00863242 0.000567783
-0.00225747 -0.00306402 0.000400555
-0.00333596 -0.00400786 0.000337633
0.000863559 -0.0773356 0
0.000535542 -0.0824666 0
2.4869e-14 -0.0974842 0
-0.000535542 -0.0824666 0
-0.000863559 -0.0773356 0
-0.0085614 -0.0760421 1.24345e-14
-0.00971871 -0.0807449 8.88178e-15
8.88178e-15 -0.0991236 1.06581e-14
0.00971871 -0.0807449 1.95399e-14
0.0085614 -0.0760421 3.55271e-15
0 0 0
0 0 0
0 0 0
0 0 0
0 0 0
0.00333596 -0.00400786 -0.000337633
0.00225747 -0.00306402 -0.000400555
-8.88178e-15 -0.00863242 -0.000567783
-0.00225747 -0.00306402 -0.000400555
-0.00333596 -0.00400786 -0.000337633
      </DataArray> 
      <DataArray type="Float64" NumberOfComponents="3" Name="Velocity" format="ascii">
0 0 0
0 0 0
0 0 0
0 0 0
0 0 0
0.00303831 0.00179319 1.54486e-05
0.00229282 0.000978283 -2.57033e-05
-2.26187e-31 -0.00323648 2.29049e-05
-0.00229282 0.000978283 -2.57033e-05
-0.00303831 0.00179319 1.54486e-05
-0.000533072 8.63112e-05 0
0.000948469 0.000371888 0
5.33813e-15 0.000602649 0
-0.000948469 0.000371888 0
0.000533072 8.63112e-05 0
-0.00014229 -0.000395779 1.77938e-15
-0.000156614 -6.87602e-05 5.33813e-15
3.55875e-15 -0.000322586 -5.33813e-15
0.000156614 -6.87602e-05 5.33813e-15
0.00014229 -0.000395779 5.33813e-15
0 0 0
0 0 0
0 0 0
0 0 0
0 0 0
0.00303831 0.00179319 -1.54486e-05
0.00229282 0.000978283 2.57033e-05
-3.55875e-15 -0.00323648 -2.29049e-05
-0.00229282 0.000978283 2.57033e-05
-0.00303831 0.00179319 -1.54486e-05
      </DataArray> 
      <DataArray type="Float64" NumberOfComponents="3" Name="Acceleration" format="ascii">
0 0 0
0 0 0
0 0 0
0 0 0
0 0 0
-0.000957289 -0.00206448 -1.34753e-06
-0.000744165 -0.00241224 -3.9149e-06
-1.77636e-15 0.00281297 -2.07078e-05
0.000744165 -0.00241224 -3.9149e-06
0.000957289 -0.00206448 -1.34753e-06
-0.000204605 0.001136 0
0.000675244 0.000509346 0
1.06581e-14 1.36352e-05 0
-0.000675244 0.000509346 0
0.000204605 0.001136 0
0.000151298 2.59021e-06 -5.32907e-15
0.000368494 0.000704781 -1.77636e-15
8.88178e-15 0.0017173 -3.55271e-15
-0.000368494 0.000704781 -1.77636e-15
-0.000151298 2.59021e-06 -4.73317e-29
0 0 0
0 0 0
0 0 0
0 0 0
0 0 0
-0.000957289 -0.00206448 1.34753e-06
-0.000744165 -0.00241224 3.9149e-06
1.77636e-15 0.00281297 2.07078e-05
0.000744165 -0.00241224 3.9149e-06
0.000957289 -0.00206448 1.34753e-06
      </DataArray> 
    </PointData>
    <CellData>
    </CellData>
  </Piece>
  </UnstructuredGrid>
</VTKFile>
