<?xml version="1.0"?>
<VTKFile type="UnstructuredGrid">
  <UnstructuredGrid>
  <Piece NumberOfPoints="30"  NumberOfCells="85">
    <Points>
      <DataArray type="Float64" NumberOfComponents="3" format="ascii">
0 0 0
4 0 0
8 0 0
12 0 0
16 0 0
16.0026 2.99434 0.000176568
12.0019 2.99452 0.00014511
8 2.99401 0.000193336
3.99812 2.99452 0.00014511
-0.00264425 2.99434 0.000176568
0.00189295 -0.0583283 8
4.00191 -0.0541085 8
8 -0.0606696 8
11.9981 -0.0541085 8
15.9981 -0.0583283 8
15.9976 2.94176 8
11.9957 2.94701 8
8 2.93861 8
4.00425 2.94701 8
0.00237608 2.94176 8
0 0 16
4 0 16
8 0 16
12 0 16
16 0 16
16.0026 2.99434 15.9998
12.0019 2.99452 15.9999
8 2.99401 15.9998
3.99812 2.99452 15.9999
-0.00264425 2.99434 15.9998
      </DataArray>
    </Points>
    <Cells>
      <DataArray type="Int32" Name="connectivity" format="ascii">
0 1
1 2
2 3
3 4
4 5
5 6
6 7
7 8
8 9
9 0
8 1
7 2
6 3
10 11
11 12
12 13
13 14
14 15
15 16
16 17
17 18
18 19
19 10
18 11
17 12
16 13
20 21
21 22
22 23
23 24
24 25
25 26
26 27
27 28
28 29
20 29
28 21
22 27
23 26
20 10
10 0
29 19
19 9
21 11
28 18
11 1
18 8
22 12
27 17
12 2
17 7
23 13
26 16
13 3
16 6
24 14
25 15
15 5
14 4
25 23
29 21
19 11
9 1
15 13
5 3
8 2
6 2
18 12
16 12
28 22
26 22
19 20
19 0
21 18
18 1
22 17
17 2
23 16
16 3
15 24
15 4
20 18
18 0
24 16
16 4
      </DataArray>
      <DataArray type="Int32" Name="offsets" format="ascii">
2
4
6
8
10
12
14
16
18
20
22
24
26
28
30
32
34
36
38
40
42
44
46
48
50
52
54
56
58
60
62
64
66
68
70
72
74
76
78
80
82
84
86
88
90
92
94
96
98
100
102
104
106
108
110
112
114
116
118
120
122
124
126
128
130
132
134
136
138
140
142
144
146
148
150
152
154
156
158
160
162
164
166
168
170
      </DataArray>
      <DataArray type="UInt8" Name="types" format="ascii">
4
4
4
4
4
4
4
4
4
4
4
4
4
4
4
4
4
4
4
4
4
4
4
4
4
4
4
4
4
4
4
4
4
4
4
4
4
4
4
4
4
4
4
4
4
4
4
4
4
4
4
4
4
4
4
4
4
4
4
4
4
4
4
4
4
4
4
4
4
4
4
4
4
4
4
4
4
4
4
4
4
4
4
4
4
      </DataArray>
    </Cells>
    <PointData>
      <DataArray type="Float64" NumberOfComponents="3" Name="Displacement" format="ascii">
0 0 0
0 0 0
0 0 0
0 0 0
0 0 0
0.00264425 -0.0056613 0.000176568
0.00188388 -0.00547678 0.00014511
-2.13163e-14 -0.00598781 0.000193336
-0.00188388 -0.00547678 0.00014511
-0.00264425 -0.0056613 0.000176568
0.00189295 -0.0583283 0
0.00190945 -0.0541085 0
-2.39808e-14 -0.0606696 0
-0.00190945 -0.0541085 0
-0.00189295 -0.0583283 0
-0.00237608 -0.0582428 3.55271e-15
-0.00425039 -0.0529912 -8.88178e-16
-2.39808e-14 -0.0613858 -3.01981e-14
0.00425039 -0.0529912 7.10543e-15
0.00237608 -0.0582428 5.32907e-15
0 0 0
0 0 0
0 0 0
0 0 0
0 0 0
0.00264425 -0.0056613 -0.000176568
0.00188388 -0.00547678 -0.00014511
7.10543e-15 -0.00598781 -0.000193336
-0.00188388 -0.00547678 -0.00014511
-0.00264425 -0.0056613 -0.000176568
      </DataArray> 
      <DataArray type="Float64" NumberOfComponents="3" Name="Velocity" format="ascii">
0 0 0
0 0 0
0 0 0
0 0 0
0 0 0
7.55322e-05 0.000309388 -9.05284e-07
6.73198e-05 0.00020207 -1.03934e-06
1.4235e-14 -0.000305223 1.60425e-06
-6.73198e-05 0.00020207 -1.03934e-06
-7.55322e-05 0.000309388 -9.05284e-07
1.30048e-05 -0.000100652 0
3.24126e-06 -5.77748e-05 0
-2.66906e-15 -6.44069e-05 0
-3.24126e-06 -5.77748e-05 0
-1.30048e-05 -0.000100652 0
7.91387e-06 4.20432e-05 8.89688e-15
4.01301e-06 9.10792e-06 -8.89688e-16
-8.00719e-15 2.83175e-05 5.33813e-15
-4.01301e-06 9.10792e-06 1.24556e-14
-7.91387e-06 4.20432e-05 1.77938e-14
0 0 0
0 0 0
0 0 0
0 0 0
0 0 0
7.55322e-05 0.000309388 9.05284e-07
6.73198e-05 0.00020207 1.03934e-06
3.55875e-15 -0.000305223 -1.60425e-06
-6.73198e-05 0.00020207 1.03934e-06
-7.55322e-05 0.000309388 9.05284e-07
      </DataArray> 
      <DataArray type="Float64" NumberOfComponents="3" Name="Acceleration" format="ascii">
0 0 0
0 0 0
0 0 0
0 0 0
0 0 0
4.75314e-05 0.00014831 -4.58597e-07
9.99133e-06 0.000120603 -2.44771e-07
7.10543e-15 2.12534e-05 -2.44835e-07
-9.99133e-06 0.000120603 -2.44771e-07
-4.75314e-05 0.00014831 -4.58597e-07
1.20859e-05 7.61791e-05 0
-4.46229e-05 6.09023e-05 0
-6.21725e-15 8.55182e-05 0
4.46229e-05 6.09023e-05 0
-1.20859e-05 7.61791e-05 0
-1.97447e-05 -5.09434e-05 -3.55271e-15
-7.23577e-06 -2.29616e-05 2.66454e-15
8.88178e-16 -4.42771e-05 1.59872e-14
7.23577e-06 -2.29616e-05 -7.10543e-15
1.97447e-05 -5.09434e-05 1.77636e-15
0 0 0
0 0 0
0 0 0
0 0 0
0 0 0
4.75314e-05 0.00014831 4.58597e-07
9.99133e-06 0.000120603 2.44771e-07
-3.55271e-15 2.12534e-05 2.44835e-07
-9.99133e-06 0.000120603 2.44771e-07
-4.75314e-05 0.00014831 4.58597e-07
      </DataArray> 
    </PointData>
    <CellData>
    </CellData>
  </Piece>
  </UnstructuredGrid>
</VTKFile>
