<?xml version="1.0"?>
<VTKFile type="UnstructuredGrid">
  <UnstructuredGrid>
  <Piece NumberOfPoints="30"  NumberOfCells="85">
    <Points>
      <DataArray type="Float64" NumberOfComponents="3" format="ascii">
0 0 0
4 0 0
8 0 0
12 0 0
16 0 0
16.0017 2.99437 0.000189718
12.0012 2.9945 0.000207522
8 2.99186 0.000268943
3.9988 2.9945 0.000207522
-0.00166041 2.99437 0.000189718
0.00146487 -0.0614781 8
4.00191 -0.060073 8
8 -0.0674755 8
11.9981 -0.060073 8
15.9985 -0.0614781 8
15.9965 2.93798 8
11.9947 2.94124 8
8 2.93095 8
4.00531 2.94124 8
0.00349509 2.93798 8
0 0 16
4 0 16
8 0 16
12 0 16
16 0 16
16.0017 2.99437 15.9998
12.0012 2.9945 15.9998
8 2.99186 15.9997
3.9988 2.9945 15.9998
-0.00166041 2.99437 15.9998
      </DataArray>
    </Points>
    <Cells>
      <DataArray type="Int32" Name="connectivity" format="ascii">
0 1
1 2
2 3
3 4
4 5
5 6
6 7
7 8
8 9
9 0
8 1
7 2
6 3
10 11
11 12
12 13
13 14
14 15
15 16
16 17
17 18
18 19
19 10
18 11
17 12
16 13
20 21
21 22
22 23
23 24
24 25
25 26
26 27
27 28
28 29
20 29
28 21
22 27
23 26
20 10
10 0
29 19
19 9
21 11
28 18
11 1
18 8
22 12
27 17
12 2
17 7
23 13
26 16
13 3
16 6
24 14
25 15
15 5
14 4
25 23
29 21
19 11
9 1
15 13
5 3
8 2
6 2
18 12
16 12
28 22
26 22
19 20
19 0
21 18
18 1
22 17
17 2
23 16
16 3
15 24
15 4
20 18
18 0
24 16
16 4
      </DataArray>
      <DataArray type="Int32" Name="offsets" format="ascii">
2
4
6
8
10
12
14
16
18
20
22
24
26
28
30
32
34
36
38
40
42
44
46
48
50
52
54
56
58
60
62
64
66
68
70
72
74
76
78
80
82
84
86
88
90
92
94
96
98
100
102
104
106
108
110
112
114
116
118
120
122
124
126
128
130
132
134
136
138
140
142
144
146
148
150
152
154
156
158
160
162
164
166
168
170
      </DataArray>
      <DataArray type="UInt8" Name="types" format="ascii">
4
4
4
4
4
4
4
4
4
4
4
4
4
4
4
4
4
4
4
4
4
4
4
4
4
4
4
4
4
4
4
4
4
4
4
4
4
4
4
4
4
4
4
4
4
4
4
4
4
4
4
4
4
4
4
4
4
4
4
4
4
4
4
4
4
4
4
4
4
4
4
4
4
4
4
4
4
4
4
4
4
4
4
4
4
      </DataArray>
    </Cells>
    <PointData>
      <DataArray type="Float64" NumberOfComponents="3" Name="Displacement" format="ascii">
0 0 0
0 0 0
0 0 0
0 0 0
0 0 0
0.00166041 -0.00563371 0.000189718
0.00119818 -0.0055033 0.000207522
-4.44089e-15 -0.00813686 0.000268943
-0.00119818 -0.0055033 0.000207522
-0.00166041 -0.00563371 0.000189718
0.00146487 -0.0614781 0
0.00191219 -0.060073 0
3.90799e-14 -0.0674755 0
-0.00191219 -0.060073 0
-0.00146487 -0.0614781 0
-0.00349509 -0.0620162 3.55271e-15
-0.00530925 -0.0587614 7.10543e-15
4.26326e-14 -0.0690546 2.30926e-14
0.00530925 -0.0587614 5.32907e-15
0.00349509 -0.0620162 1.06581e-14
0 0 0
0 0 0
0 0 0
0 0 0
0 0 0
0.00166041 -0.00563371 -0.000189718
0.00119818 -0.0055033 -0.000207522
0 -0.00813686 -0.000268943
-0.00119818 -0.0055033 -0.000207522
-0.00166041 -0.00563371 -0.000189718
      </DataArray> 
      <DataArray type="Float64" NumberOfComponents="3" Name="Velocity" format="ascii">
0 0 0
0 0 0
0 0 0
0 0 0
0 0 0
0.000956552 0.00210062 -3.47573e-07
0.00113665 -0.000503201 -9.24655e-06
-1.33453e-14 0.000198272 -1.09332e-05
-0.00113665 -0.000503201 -9.24655e-06
-0.000956552 0.00210062 -3.47573e-07
-0.000428417 0.000940388 0
0.000274407 0.000879679 0
-2.66906e-14 0.000944203 0
-0.000274407 0.000879679 0
0.000428417 0.000940388 0
0.000127791 0.00078366 -1.06763e-14
-6.64124e-05 0.000774885 5.33813e-15
-3.55875e-15 0.000500051 -3.15544e-30
6.64124e-05 0.000774885 -5.33813e-15
-0.000127791 0.00078366 -1.4235e-14
0 0 0
0 0 0
0 0 0
0 0 0
0 0 0
0.000956552 0.00210062 3.47573e-07
0.00113665 -0.000503201 9.24655e-06
-1.77938e-14 0.000198272 1.09332e-05
-0.00113665 -0.000503201 9.24655e-06
-0.000956552 0.00210062 3.47573e-07
      </DataArray> 
      <DataArray type="Float64" NumberOfComponents="3" Name="Acceleration" format="ascii">
0 0 0
0 0 0
0 0 0
0 0 0
0 0 0
0.000632382 0.000384239 4.39388e-06
0.000468336 0.00031732 -8.17405e-06
-8.88178e-16 0.00226439 -1.37808e-05
-0.000468336 0.00031732 -8.17405e-06
-0.000632382 0.000384239 4.39388e-06
0.000295027 -0.000473425 0
-0.000374405 0.000270056 0
-1.06581e-14 -0.000475316 0
0.000374405 0.000270056 0
-0.000295027 -0.000473425 0
-9.07835e-05 0.000288545 3.55271e-15
0.00013472 0.00015421 -3.55271e-15
-1.06581e-14 0.00062138 -5.32907e-15
-0.00013472 0.00015421 -1.77636e-15
9.07835e-05 0.000288545 -3.55271e-15
0 0 0
0 0 0
0 0 0
0 0 0
0 0 0
0.000632382 0.000384239 -4.39388e-06
0.000468336 0.00031732 8.17405e-06
-7.10543e-15 0.00226439 1.37808e-05
-0.000468336 0.00031732 8.17405e-06
-0.000632382 0.000384239 -4.39388e-06
      </DataArray> 
    </PointData>
    <CellData>
    </CellData>
  </Piece>
  </UnstructuredGrid>
</VTKFile>
