<?xml version="1.0"?>
<VTKFile type="UnstructuredGrid">
  <UnstructuredGrid>
  <Piece NumberOfPoints="30"  NumberOfCells="85">
    <Points>
      <DataArray type="Float64" NumberOfComponents="3" format="ascii">
0 0 0
4 0 0
8 0 0
12 0 0
16 0 0
16.0058 2.99564 9.39134e-05
12.0039 2.99621 7.7052e-05
8 2.99071 3.96399e-05
3.99607 2.99621 7.7052e-05
-0.00583439 2.99564 9.39134e-05
0.000982157 -0.0375365 8
4.00194 -0.0318502 8
8 -0.0345167 8
11.9981 -0.0318502 8
15.999 -0.0375365 8
15.9999 2.96112 8
11.9978 2.96821 8
8 2.96261 8
4.00223 2.96821 8
5.38978e-05 2.96112 8
0 0 16
4 0 16
8 0 16
12 0 16
16 0 16
16.0058 2.99564 15.9999
12.0039 2.99621 15.9999
8 2.99071 16
3.99607 2.99621 15.9999
-0.00583439 2.99564 15.9999
      </DataArray>
    </Points>
    <Cells>
      <DataArray type="Int32" Name="connectivity" format="ascii">
0 1
1 2
2 3
3 4
4 5
5 6
6 7
7 8
8 9
9 0
8 1
7 2
6 3
10 11
11 12
12 13
13 14
14 15
15 16
16 17
17 18
18 19
19 10
18 11
17 12
16 13
20 21
21 22
22 23
23 24
24 25
25 26
26 27
27 28
28 29
20 29
28 21
22 27
23 26
20 10
10 0
29 19
19 9
21 11
28 18
11 1
18 8
22 12
27 17
12 2
17 7
23 13
26 16
13 3
16 6
24 14
25 15
15 5
14 4
25 23
29 21
19 11
9 1
15 13
5 3
8 2
6 2
18 12
16 12
28 22
26 22
19 20
19 0
21 18
18 1
22 17
17 2
23 16
16 3
15 24
15 4
20 18
18 0
24 16
16 4
      </DataArray>
      <DataArray type="Int32" Name="offsets" format="ascii">
2
4
6
8
10
12
14
16
18
20
22
24
26
28
30
32
34
36
38
40
42
44
46
48
50
52
54
56
58
60
62
64
66
68
70
72
74
76
78
80
82
84
86
88
90
92
94
96
98
100
102
104
106
108
110
112
114
116
118
120
122
124
126
128
130
132
134
136
138
140
142
144
146
148
150
152
154
156
158
160
162
164
166
168
170
      </DataArray>
      <DataArray type="UInt8" Name="types" format="ascii">
4
4
4
4
4
4
4
4
4
4
4
4
4
4
4
4
4
4
4
4
4
4
4
4
4
4
4
4
4
4
4
4
4
4
4
4
4
4
4
4
4
4
4
4
4
4
4
4
4
4
4
4
4
4
4
4
4
4
4
4
4
4
4
4
4
4
4
4
4
4
4
4
4
4
4
4
4
4
4
4
4
4
4
4
4
      </DataArray>
    </Cells>
    <PointData>
      <DataArray type="Float64" NumberOfComponents="3" Name="Displacement" format="ascii">
0 0 0
0 0 0
0 0 0
0 0 0
0 0 0
0.00583439 -0.00435585 9.39134e-05
0.00393397 -0.00379237 7.7052e-05
7.10543e-15 -0.00928827 3.96399e-05
-0.00393397 -0.00379237 7.7052e-05
-0.00583439 -0.00435585 9.39134e-05
0.000982157 -0.0375365 0
0.00194401 -0.0318502 0
3.90799e-14 -0.0345167 0
-0.00194401 -0.0318502 0
-0.000982157 -0.0375365 0
-5.38978e-05 -0.0388828 1.77636e-14
-0.00222648 -0.0317946 -5.32907e-15
2.30926e-14 -0.0373877 -1.15463e-14
0.00222648 -0.0317946 1.06581e-14
5.38978e-05 -0.0388828 1.59872e-14
0 0 0
0 0 0
0 0 0
0 0 0
0 0 0
0.00583439 -0.00435585 -9.39134e-05
0.00393397 -0.00379237 -7.7052e-05
1.06581e-14 -0.00928827 -3.96399e-05
-0.00393397 -0.00379237 -7.7052e-05
-0.00583439 -0.00435585 -9.39134e-05
      </DataArray> 
      <DataArray type="Float64" NumberOfComponents="3" Name="Velocity" format="ascii">
0 0 0
0 0 0
0 0 0
0 0 0
0 0 0
-0.0016066 -0.00190598 6.69063e-06
-0.00155298 0.000653917 -1.09095e-05
7.1175e-15 -0.00217749 2.16231e-05
0.00155298 0.000653917 -1.09095e-05
0.0016066 -0.00190598 6.69063e-06
-0.000538946 1.61902e-05 0
-0.000542798 -0.00187804 0
-1.77938e-15 -0.003683 0
0.000542798 -0.00187804 0
0.000538946 1.61902e-05 0
-0.000673764 -0.00110424 1.06763e-14
-0.000176682 -0.00237061 -5.33813e-15
7.88861e-31 -0.00263743 -2.66906e-15
0.000176682 -0.00237061 -8.89688e-15
0.000673764 -0.00110424 1.77938e-15
0 0 0
0 0 0
0 0 0
0 0 0
0 0 0
-0.0016066 -0.00190598 -6.69063e-06
-0.00155298 0.000653917 1.09095e-05
3.55875e-15 -0.00217749 -2.16231e-05
0.00155298 0.000653917 1.09095e-05
0.0016066 -0.00190598 -6.69063e-06
      </DataArray> 
      <DataArray type="Float64" NumberOfComponents="3" Name="Acceleration" format="ascii">
0 0 0
0 0 0
0 0 0
0 0 0
0 0 0
-0.00239496 -0.00233648 -6.4112e-06
-0.00160977 -0.00207899 -7.87879e-06
-7.10543e-15 0.00349206 3.84659e-06
0.00160977 -0.00207899 -7.87879e-06
0.00239496 -0.00233648 -6.4112e-06
0.000634827 -0.00116875 0
-0.000547732 -0.000556712 0
-1.06581e-14 -0.0015783 0
0.000547732 -0.000556712 0
-0.000634827 -0.00116875 0
-0.000144308 -0.000138672 -3.55271e-15
0.000269415 -0.000399887 1.77636e-15
1.77636e-15 6.03855e-05 -8.88178e-16
-0.000269415 -0.000399887 -3.55271e-15
0.000144308 -0.000138672 1.77636e-15
0 0 0
0 0 0
0 0 0
0 0 0
0 0 0
-0.00239496 -0.00233648 6.4112e-06
-0.00160977 -0.00207899 7.87879e-06
-3.55271e-15 0.00349206 -3.84659e-06
0.00160977 -0.00207899 7.87879e-06
0.00239496 -0.00233648 6.4112e-06
      </DataArray> 
    </PointData>
    <CellData>
    </CellData>
  </Piece>
  </UnstructuredGrid>
</VTKFile>
