<?xml version="1.0"?>
<VTKFile type="UnstructuredGrid">
  <UnstructuredGrid>
  <Piece NumberOfPoints="30"  NumberOfCells="85">
    <Points>
      <DataArray type="Float64" NumberOfComponents="3" format="ascii">
0 0 0
4 0 0
8 0 0
12 0 0
16 0 0
16.0025 2.99473 0.000172174
12.0019 2.99445 0.000139376
8 2.99429 0.000186356
3.99812 2.99445 0.000139376
-0.00254428 2.99473 0.000172174
0.00194913 -0.0581026 8
4.00188 -0.0536628 8
8 -0.0597932 8
11.9981 -0.0536628 8
15.9981 -0.0581026 8
15.9977 2.94193 8
11.9958 2.94735 8
8 2.93907 8
4.00419 2.94735 8
0.00227579 2.94193 8
0 0 16
4 0 16
8 0 16
12 0 16
16 0 16
16.0025 2.99473 15.9998
12.0019 2.99445 15.9999
8 2.99429 15.9998
3.99812 2.99445 15.9999
-0.00254428 2.99473 15.9998
      </DataArray>
    </Points>
    <Cells>
      <DataArray type="Int32" Name="connectivity" format="ascii">
0 1
1 2
2 3
3 4
4 5
5 6
6 7
7 8
8 9
9 0
8 1
7 2
6 3
10 11
11 12
12 13
13 14
14 15
15 16
16 17
17 18
18 19
19 10
18 11
17 12
16 13
20 21
21 22
22 23
23 24
24 25
25 26
26 27
27 28
28 29
20 29
28 21
22 27
23 26
20 10
10 0
29 19
19 9
21 11
28 18
11 1
18 8
22 12
27 17
12 2
17 7
23 13
26 16
13 3
16 6
24 14
25 15
15 5
14 4
25 23
29 21
19 11
9 1
15 13
5 3
8 2
6 2
18 12
16 12
28 22
26 22
19 20
19 0
21 18
18 1
22 17
17 2
23 16
16 3
15 24
15 4
20 18
18 0
24 16
16 4
      </DataArray>
      <DataArray type="Int32" Name="offsets" format="ascii">
2
4
6
8
10
12
14
16
18
20
22
24
26
28
30
32
34
36
38
40
42
44
46
48
50
52
54
56
58
60
62
64
66
68
70
72
74
76
78
80
82
84
86
88
90
92
94
96
98
100
102
104
106
108
110
112
114
116
118
120
122
124
126
128
130
132
134
136
138
140
142
144
146
148
150
152
154
156
158
160
162
164
166
168
170
      </DataArray>
      <DataArray type="UInt8" Name="types" format="ascii">
4
4
4
4
4
4
4
4
4
4
4
4
4
4
4
4
4
4
4
4
4
4
4
4
4
4
4
4
4
4
4
4
4
4
4
4
4
4
4
4
4
4
4
4
4
4
4
4
4
4
4
4
4
4
4
4
4
4
4
4
4
4
4
4
4
4
4
4
4
4
4
4
4
4
4
4
4
4
4
4
4
4
4
4
4
      </DataArray>
    </Cells>
    <PointData>
      <DataArray type="Float64" NumberOfComponents="3" Name="Displacement" format="ascii">
0 0 0
0 0 0
0 0 0
0 0 0
0 0 0
0.00254428 -0.00527369 0.000172174
0.00187824 -0.00554898 0.000139376
-1.24345e-14 -0.00571141 0.000186356
-0.00187824 -0.00554898 0.000139376
-0.00254428 -0.00527369 0.000172174
0.00194913 -0.0581026 0
0.00188058 -0.0536628 0
-7.99361e-15 -0.0597932 0
-0.00188058 -0.0536628 0
-0.00194913 -0.0581026 0
-0.00227579 -0.0580657 8.88178e-15
-0.00418595 -0.0526473 -7.99361e-15
3.55271e-15 -0.0609309 -1.06581e-14
0.00418595 -0.0526473 -4.44089e-15
0.00227579 -0.0580657 3.55271e-15
0 0 0
0 0 0
0 0 0
0 0 0
0 0 0
0.00254428 -0.00527369 -0.000172174
0.00187824 -0.00554898 -0.000139376
1.06581e-14 -0.00571141 -0.000186356
-0.00187824 -0.00554898 -0.000139376
-0.00254428 -0.00527369 -0.000172174
      </DataArray> 
      <DataArray type="Float64" NumberOfComponents="3" Name="Velocity" format="ascii">
0 0 0
0 0 0
0 0 0
0 0 0
0 0 0
1.86249e-05 -0.000836308 3.67649e-06
-0.000147288 -0.000159335 -3.85991e-07
3.55875e-15 -0.000638825 2.76301e-06
0.000147288 -0.000159335 -3.85991e-07
-1.86249e-05 -0.000836308 3.67649e-06
0.000134691 -0.00026521 0
-0.000173966 -6.08959e-06 0
-2.66906e-15 -8.51245e-05 0
0.000173966 -6.08959e-06 0
-0.000134691 -0.00026521 0
-2.35591e-05 -3.7816e-05 1.60144e-14
-5.18821e-07 -0.000145013 -4.44844e-15
3.55875e-15 -0.000129225 1.77938e-15
5.18821e-07 -0.000145013 -8.00719e-15
2.35591e-05 -3.7816e-05 1.60144e-14
0 0 0
0 0 0
0 0 0
0 0 0
0 0 0
1.86249e-05 -0.000836308 -3.67649e-06
-0.000147288 -0.000159335 3.85991e-07
1.57772e-30 -0.000638825 -2.76301e-06
0.000147288 -0.000159335 3.85991e-07
-1.86249e-05 -0.000836308 -3.67649e-06
      </DataArray> 
      <DataArray type="Float64" NumberOfComponents="3" Name="Acceleration" format="ascii">
0 0 0
0 0 0
0 0 0
0 0 0
0 0 0
4.51668e-05 -0.000282609 1.59208e-06
-2.45847e-05 0.000197769 7.49303e-07
8.88178e-15 -0.000265602 1.98233e-06
2.45847e-05 0.000197769 7.49303e-07
-4.51668e-05 -0.000282609 1.59208e-06
-4.42001e-05 3.51899e-05 0
4.08336e-05 -2.65894e-05 0
-8.88178e-16 -0.000246694 0
-4.08336e-05 -2.65894e-05 0
4.42001e-05 3.51899e-05 0
-9.32835e-06 -1.86024e-05 1.77636e-15
3.09681e-05 2.38788e-05 2.66454e-15
6.31878e-28 0.000131418 1.66055e-28
-3.09681e-05 2.38788e-05 2.66454e-15
9.32835e-06 -1.86024e-05 -3.55271e-15
0 0 0
0 0 0
0 0 0
0 0 0
0 0 0
4.51668e-05 -0.000282609 -1.59208e-06
-2.45847e-05 0.000197769 -7.49303e-07
-2.8399e-29 -0.000265602 -1.98233e-06
2.45847e-05 0.000197769 -7.49303e-07
-4.51668e-05 -0.000282609 -1.59208e-06
      </DataArray> 
    </PointData>
    <CellData>
    </CellData>
  </Piece>
  </UnstructuredGrid>
</VTKFile>
