<?xml version="1.0"?>
<VTKFile type="UnstructuredGrid">
  <UnstructuredGrid>
  <Piece NumberOfPoints="30"  NumberOfCells="85">
    <Points>
      <DataArray type="Float64" NumberOfComponents="3" format="ascii">
0 0 0
4 0 0
8 0 0
12 0 0
16 0 0
16.0034 2.9925 0.000160195
12.002 2.99475 0.000112489
8 2.99232 0.000160497
3.99802 2.99475 0.000112489
-0.00341751 2.9925 0.000160195
0.00194041 -0.0533124 8
4.00156 -0.0495212 8
8 -0.0562342 8
11.9984 -0.0495212 8
15.9981 -0.0533124 8
15.9977 2.94632 8
11.9961 2.95153 8
8 2.94324 8
4.00392 2.95153 8
0.00230036 2.94632 8
0 0 16
4 0 16
8 0 16
12 0 16
16 0 16
16.0034 2.9925 15.9998
12.002 2.99475 15.9999
8 2.99232 15.9998
3.99802 2.99475 15.9999
-0.00341751 2.9925 15.9998
      </DataArray>
    </Points>
    <Cells>
      <DataArray type="Int32" Name="connectivity" format="ascii">
0 1
1 2
2 3
3 4
4 5
5 6
6 7
7 8
8 9
9 0
8 1
7 2
6 3
10 11
11 12
12 13
13 14
14 15
15 16
16 17
17 18
18 19
19 10
18 11
17 12
16 13
20 21
21 22
22 23
23 24
24 25
25 26
26 27
27 28
28 29
20 29
28 21
22 27
23 26
20 10
10 0
29 19
19 9
21 11
28 18
11 1
18 8
22 12
27 17
12 2
17 7
23 13
26 16
13 3
16 6
24 14
25 15
15 5
14 4
25 23
29 21
19 11
9 1
15 13
5 3
8 2
6 2
18 12
16 12
28 22
26 22
19 20
19 0
21 18
18 1
22 17
17 2
23 16
16 3
15 24
15 4
20 18
18 0
24 16
16 4
      </DataArray>
      <DataArray type="Int32" Name="offsets" format="ascii">
2
4
6
8
10
12
14
16
18
20
22
24
26
28
30
32
34
36
38
40
42
44
46
48
50
52
54
56
58
60
62
64
66
68
70
72
74
76
78
80
82
84
86
88
90
92
94
96
98
100
102
104
106
108
110
112
114
116
118
120
122
124
126
128
130
132
134
136
138
140
142
144
146
148
150
152
154
156
158
160
162
164
166
168
170
      </DataArray>
      <DataArray type="UInt8" Name="types" format="ascii">
4
4
4
4
4
4
4
4
4
4
4
4
4
4
4
4
4
4
4
4
4
4
4
4
4
4
4
4
4
4
4
4
4
4
4
4
4
4
4
4
4
4
4
4
4
4
4
4
4
4
4
4
4
4
4
4
4
4
4
4
4
4
4
4
4
4
4
4
4
4
4
4
4
4
4
4
4
4
4
4
4
4
4
4
4
      </DataArray>
    </Cells>
    <PointData>
      <DataArray type="Float64" NumberOfComponents="3" Name="Displacement" format="ascii">
0 0 0
0 0 0
0 0 0
0 0 0
0 0 0
0.00341751 -0.00749775 0.000160195
0.00197823 -0.00525259 0.000112489
5.32907e-15 -0.0076775 0.000160497
-0.00197823 -0.00525259 0.000112489
-0.00341751 -0.00749775 0.000160195
0.00194041 -0.0533124 0
0.0015645 -0.0495212 0
5.32907e-15 -0.0562342 0
-0.0015645 -0.0495212 0
-0.00194041 -0.0533124 0
-0.00230036 -0.0536816 -1.95399e-14
-0.003925 -0.0484662 1.77636e-15
3.01981e-14 -0.0567591 1.42109e-14
0.003925 -0.0484662 -1.33227e-14
0.00230036 -0.0536816 -9.76996e-15
0 0 0
0 0 0
0 0 0
0 0 0
0 0 0
0.00341751 -0.00749775 -0.000160195
0.00197823 -0.00525259 -0.000112489
-6.21725e-15 -0.0076775 -0.000160497
-0.00197823 -0.00525259 -0.000112489
-0.00341751 -0.00749775 -0.000160195
      </DataArray> 
      <DataArray type="Float64" NumberOfComponents="3" Name="Velocity" format="ascii">
0 0 0
0 0 0
0 0 0
0 0 0
0 0 0
-0.000115699 -0.00108625 8.85287e-06
-0.000165811 -0.000390593 9.48951e-06
7.1175e-15 -0.000570494 -1.98042e-06
0.000165811 -0.000390593 9.48951e-06
0.000115699 -0.00108625 8.85287e-06
-8.95843e-05 0.000885494 0
8.85974e-05 0.000259172 0
-3.15544e-30 0.000195026 0
-8.85974e-05 0.000259172 0
8.95843e-05 0.000885494 0
-5.80588e-05 0.000100021 -3.55875e-15
2.55459e-05 0.000470533 -1.77938e-15
7.1175e-15 0.000689887 5.33813e-15
-2.55459e-05 0.000470533 8.00719e-15
5.80588e-05 0.000100021 -1.15659e-14
0 0 0
0 0 0
0 0 0
0 0 0
0 0 0
-0.000115699 -0.00108625 -8.85287e-06
-0.000165811 -0.000390593 -9.48951e-06
8.00719e-15 -0.000570494 1.98042e-06
0.000165811 -0.000390593 -9.48951e-06
0.000115699 -0.00108625 -8.85287e-06
      </DataArray> 
      <DataArray type="Float64" NumberOfComponents="3" Name="Acceleration" format="ascii">
0 0 0
0 0 0
0 0 0
0 0 0
0 0 0
-0.000226571 0.00215593 -8.96548e-06
0.00029351 -0.00012441 2.13228e-06
1.77636e-15 0.00179139 -3.5106e-06
-0.00029351 -0.00012441 2.13228e-06
0.000226571 0.00215593 -8.96548e-06
-0.000243304 -0.000327515 0
0.000369611 -3.26695e-05 0
2.66454e-14 0.000309556 0
-0.000369611 -3.26695e-05 0
0.000243304 -0.000327515 0
0.000113249 2.14636e-05 8.88178e-15
-7.66934e-05 -0.00022466 -1.77636e-15
-1.77636e-15 -0.000306852 3.55271e-15
7.66934e-05 -0.00022466 4.44089e-15
-0.000113249 2.14636e-05 4.44089e-15
0 0 0
0 0 0
0 0 0
0 0 0
0 0 0
-0.000226571 0.00215593 8.96548e-06
0.00029351 -0.00012441 -2.13228e-06
1.86517e-14 0.00179139 3.5106e-06
-0.00029351 -0.00012441 -2.13228e-06
0.000226571 0.00215593 8.96548e-06
      </DataArray> 
    </PointData>
    <CellData>
    </CellData>
  </Piece>
  </UnstructuredGrid>
</VTKFile>
