<?xml version="1.0"?>
<VTKFile type="UnstructuredGrid">
  <UnstructuredGrid>
  <Piece NumberOfPoints="30"  NumberOfCells="85">
    <Points>
      <DataArray type="Float64" NumberOfComponents="3" format="ascii">
0 0 0
4 0 0
8 0 0
12 0 0
16 0 0
16.0026 2.99554 0.000170057
12.0022 2.99398 0.000170734
8 2.99384 0.000204769
3.99777 2.99398 0.000170734
-0.00256504 2.99554 0.000170057
0.00206716 -0.0601591 8
4.00247 -0.0545869 8
8 -0.0605042 8
11.9975 -0.0545869 8
15.9979 -0.0601591 8
15.9983 2.93928 8
11.9959 2.94628 8
8 2.93783 8
4.00405 2.94628 8
0.00168545 2.93928 8
0 0 16
4 0 16
8 0 16
12 0 16
16 0 16
16.0026 2.99554 15.9998
12.0022 2.99398 15.9998
8 2.99384 15.9998
3.99777 2.99398 15.9998
-0.00256504 2.99554 15.9998
      </DataArray>
    </Points>
    <Cells>
      <DataArray type="Int32" Name="connectivity" format="ascii">
0 1
1 2
2 3
3 4
4 5
5 6
6 7
7 8
8 9
9 0
8 1
7 2
6 3
10 11
11 12
12 13
13 14
14 15
15 16
16 17
17 18
18 19
19 10
18 11
17 12
16 13
20 21
21 22
22 23
23 24
24 25
25 26
26 27
27 28
28 29
20 29
28 21
22 27
23 26
20 10
10 0
29 19
19 9
21 11
28 18
11 1
18 8
22 12
27 17
12 2
17 7
23 13
26 16
13 3
16 6
24 14
25 15
15 5
14 4
25 23
29 21
19 11
9 1
15 13
5 3
8 2
6 2
18 12
16 12
28 22
26 22
19 20
19 0
21 18
18 1
22 17
17 2
23 16
16 3
15 24
15 4
20 18
18 0
24 16
16 4
      </DataArray>
      <DataArray type="Int32" Name="offsets" format="ascii">
2
4
6
8
10
12
14
16
18
20
22
24
26
28
30
32
34
36
38
40
42
44
46
48
50
52
54
56
58
60
62
64
66
68
70
72
74
76
78
80
82
84
86
88
90
92
94
96
98
100
102
104
106
108
110
112
114
116
118
120
122
124
126
128
130
132
134
136
138
140
142
144
146
148
150
152
154
156
158
160
162
164
166
168
170
      </DataArray>
      <DataArray type="UInt8" Name="types" format="ascii">
4
4
4
4
4
4
4
4
4
4
4
4
4
4
4
4
4
4
4
4
4
4
4
4
4
4
4
4
4
4
4
4
4
4
4
4
4
4
4
4
4
4
4
4
4
4
4
4
4
4
4
4
4
4
4
4
4
4
4
4
4
4
4
4
4
4
4
4
4
4
4
4
4
4
4
4
4
4
4
4
4
4
4
4
4
      </DataArray>
    </Cells>
    <PointData>
      <DataArray type="Float64" NumberOfComponents="3" Name="Displacement" format="ascii">
0 0 0
0 0 0
0 0 0
0 0 0
0 0 0
0.00256504 -0.00446272 0.000170057
0.00222865 -0.00602294 0.000170734
-1.15463e-14 -0.00616481 0.000204769
-0.00222865 -0.00602294 0.000170734
-0.00256504 -0.00446272 0.000170057
0.00206716 -0.0601591 0
0.00247174 -0.0545869 0
2.4869e-14 -0.0605042 0
-0.00247174 -0.0545869 0
-0.00206716 -0.0601591 0
-0.00168545 -0.0607235 -2.66454e-15
-0.00405248 -0.0537171 7.10543e-15
3.90799e-14 -0.062173 3.55271e-15
0.00405248 -0.0537171 -5.32907e-15
0.00168545 -0.0607235 -2.22045e-14
0 0 0
0 0 0
0 0 0
0 0 0
0 0 0
0.00256504 -0.00446272 -0.000170057
0.00222865 -0.00602294 -0.000170734
-3.55271e-15 -0.00616481 -0.000204769
-0.00222865 -0.00602294 -0.000170734
-0.00256504 -0.00446272 -0.000170057
      </DataArray> 
      <DataArray type="Float64" NumberOfComponents="3" Name="Velocity" format="ascii">
0 0 0
0 0 0
0 0 0
0 0 0
0 0 0
-0.000255869 0.00224636 -4.63543e-06
9.70072e-06 0.00114276 8.22964e-06
-9.78656e-15 0.0022788 7.80874e-06
-9.70072e-06 0.00114276 8.22964e-06
0.000255869 0.00224636 -4.63543e-06
-0.000231694 -0.00142314 0
0.000313553 -0.0011231 0
-5.33813e-15 -0.0017799 0
-0.000313553 -0.0011231 0
0.000231694 -0.00142314 0
-5.16708e-05 -0.00102847 9.78656e-15
-4.72448e-05 -0.00111845 -7.1175e-15
-1.57772e-30 -0.00125079 -7.1175e-15
4.72448e-05 -0.00111845 3.55875e-15
5.16708e-05 -0.00102847 -8.89688e-16
0 0 0
0 0 0
0 0 0
0 0 0
0 0 0
-0.000255869 0.00224636 4.63543e-06
9.70072e-06 0.00114276 -8.22964e-06
-8.89688e-15 0.0022788 -7.80874e-06
-9.70072e-06 0.00114276 -8.22964e-06
0.000255869 0.00224636 4.63543e-06
      </DataArray> 
      <DataArray type="Float64" NumberOfComponents="3" Name="Acceleration" format="ascii">
0 0 0
0 0 0
0 0 0
0 0 0
0 0 0
5.25093e-05 -0.00129493 1.11412e-05
-0.000448866 0.000580853 -7.8923e-06
9.76996e-15 0.00018553 -3.0874e-06
0.000448866 0.000580853 -7.8923e-06
-5.25093e-05 -0.00129493 1.11412e-05
0.000268304 -0.000477767 0
-0.000434336 -0.000129484 0
-7.10543e-15 -0.000563078 0
0.000434336 -0.000129484 0
-0.000268304 -0.000477767 0
-0.000141729 0.000367218 4.44089e-15
8.7759e-05 0.00013426 -3.31322e-29
-7.10543e-15 0.000426864 7.10543e-15
-8.7759e-05 0.00013426 1.77636e-15
0.000141729 0.000367218 9.76996e-15
0 0 0
0 0 0
0 0 0
0 0 0
0 0 0
5.25093e-05 -0.00129493 -1.11412e-05
-0.000448866 0.000580853 7.8923e-06
-1.42109e-14 0.00018553 3.0874e-06
0.000448866 0.000580853 7.8923e-06
-5.25093e-05 -0.00129493 -1.11412e-05
      </DataArray> 
    </PointData>
    <CellData>
    </CellData>
  </Piece>
  </UnstructuredGrid>
</VTKFile>
