<?xml version="1.0"?>
<VTKFile type="UnstructuredGrid">
  <UnstructuredGrid>
  <Piece NumberOfPoints="30"  NumberOfCells="85">
    <Points>
      <DataArray type="Float64" NumberOfComponents="3" format="ascii">
0 0 0
4 0 0
8 0 0
12 0 0
16 0 0
16.0028 2.99477 0.00017605
12.002 2.99478 0.000145273
8 2.99365 0.000194371
3.99797 2.99478 0.000145273
-0.00281093 2.99477 0.00017605
0.0018765 -0.0584114 8
4.00191 -0.0541192 8
8 -0.0605693 8
11.9981 -0.0541192 8
15.9981 -0.0584114 8
15.9976 2.94177 8
11.9957 2.94693 8
8 2.93844 8
4.00429 2.94693 8
0.00239977 2.94177 8
0 0 16
4 0 16
8 0 16
12 0 16
16 0 16
16.0028 2.99477 15.9998
12.002 2.99478 15.9999
8 2.99365 15.9998
3.99797 2.99478 15.9999
-0.00281093 2.99477 15.9998
      </DataArray>
    </Points>
    <Cells>
      <DataArray type="Int32" Name="connectivity" format="ascii">
0 1
1 2
2 3
3 4
4 5
5 6
6 7
7 8
8 9
9 0
8 1
7 2
6 3
10 11
11 12
12 13
13 14
14 15
15 16
16 17
17 18
18 19
19 10
18 11
17 12
16 13
20 21
21 22
22 23
23 24
24 25
25 26
26 27
27 28
28 29
20 29
28 21
22 27
23 26
20 10
10 0
29 19
19 9
21 11
28 18
11 1
18 8
22 12
27 17
12 2
17 7
23 13
26 16
13 3
16 6
24 14
25 15
15 5
14 4
25 23
29 21
19 11
9 1
15 13
5 3
8 2
6 2
18 12
16 12
28 22
26 22
19 20
19 0
21 18
18 1
22 17
17 2
23 16
16 3
15 24
15 4
20 18
18 0
24 16
16 4
      </DataArray>
      <DataArray type="Int32" Name="offsets" format="ascii">
2
4
6
8
10
12
14
16
18
20
22
24
26
28
30
32
34
36
38
40
42
44
46
48
50
52
54
56
58
60
62
64
66
68
70
72
74
76
78
80
82
84
86
88
90
92
94
96
98
100
102
104
106
108
110
112
114
116
118
120
122
124
126
128
130
132
134
136
138
140
142
144
146
148
150
152
154
156
158
160
162
164
166
168
170
      </DataArray>
      <DataArray type="UInt8" Name="types" format="ascii">
4
4
4
4
4
4
4
4
4
4
4
4
4
4
4
4
4
4
4
4
4
4
4
4
4
4
4
4
4
4
4
4
4
4
4
4
4
4
4
4
4
4
4
4
4
4
4
4
4
4
4
4
4
4
4
4
4
4
4
4
4
4
4
4
4
4
4
4
4
4
4
4
4
4
4
4
4
4
4
4
4
4
4
4
4
      </DataArray>
    </Cells>
    <PointData>
      <DataArray type="Float64" NumberOfComponents="3" Name="Displacement" format="ascii">
0 0 0
0 0 0
0 0 0
0 0 0
0 0 0
0.00281093 -0.00522703 0.00017605
0.00203443 -0.00521618 0.000145273
1.77636e-15 -0.00634953 0.000194371
-0.00203443 -0.00521618 0.000145273
-0.00281093 -0.00522703 0.00017605
0.0018765 -0.0584114 0
0.00191158 -0.0541192 0
-3.55271e-14 -0.0605693 0
-0.00191158 -0.0541192 0
-0.0018765 -0.0584114 0
-0.00239977 -0.058235 1.77636e-15
-0.00429436 -0.0530675 0
-4.9738e-14 -0.0615629 7.10543e-15
0.00429436 -0.0530675 1.77636e-15
0.00239977 -0.058235 -7.99361e-15
0 0 0
0 0 0
0 0 0
0 0 0
0 0 0
0.00281093 -0.00522703 -0.00017605
0.00203443 -0.00521618 -0.000145273
-7.99361e-15 -0.00634953 -0.000194371
-0.00203443 -0.00521618 -0.000145273
-0.00281093 -0.00522703 -0.00017605
      </DataArray> 
      <DataArray type="Float64" NumberOfComponents="3" Name="Velocity" format="ascii">
0 0 0
0 0 0
0 0 0
0 0 0
0 0 0
6.46e-05 0.000202013 1.84479e-07
0.000127305 -0.000111363 -4.50838e-07
7.1175e-15 3.70459e-05 1.32334e-07
-0.000127305 -0.000111363 -4.50838e-07
-6.46e-05 0.000202013 1.84479e-07
-3.07576e-05 -0.000107464 0
1.784e-05 -1.19107e-06 0
7.1175e-15 -1.62413e-06 0
-1.784e-05 -1.19107e-06 0
3.07576e-05 -0.000107464 0
6.28801e-06 2.59815e-05 -1.24556e-14
-1.07653e-05 -3.92259e-05 -1.77938e-15
3.55875e-15 -4.1057e-05 7.1175e-15
1.07653e-05 -3.92259e-05 -5.33813e-15
-6.28801e-06 2.59815e-05 -4.44844e-15
0 0 0
0 0 0
0 0 0
0 0 0
0 0 0
6.46e-05 0.000202013 -1.84479e-07
0.000127305 -0.000111363 4.50838e-07
-4.44844e-15 3.70459e-05 -1.32334e-07
-0.000127305 -0.000111363 4.50838e-07
-6.46e-05 0.000202013 -1.84479e-07
      </DataArray> 
      <DataArray type="Float64" NumberOfComponents="3" Name="Acceleration" format="ascii">
0 0 0
0 0 0
0 0 0
0 0 0
0 0 0
-0.00015358 -0.000424281 7.93253e-07
-0.000185293 -0.000175952 3.61624e-07
1.59872e-14 0.000397467 -1.12226e-06
0.000185293 -0.000175952 3.61624e-07
0.00015358 -0.000424281 7.93253e-07
2.46242e-05 0.000155368 0
-5.27662e-05 1.80489e-05 0
-1.42109e-14 -0.00011992 0
5.27662e-05 1.80489e-05 0
-2.46242e-05 0.000155368 0
-2.51651e-05 -9.04771e-05 1.77636e-15
2.64587e-05 1.39132e-05 3.55271e-15
1.06581e-14 8.83939e-05 1.06581e-14
-2.64587e-05 1.39132e-05 -1.77636e-15
2.51651e-05 -9.04771e-05 -8.88178e-16
0 0 0
0 0 0
0 0 0
0 0 0
0 0 0
-0.00015358 -0.000424281 -7.93253e-07
-0.000185293 -0.000175952 -3.61624e-07
9.76996e-15 0.000397467 1.12226e-06
0.000185293 -0.000175952 -3.61624e-07
0.00015358 -0.000424281 -7.93253e-07
      </DataArray> 
    </PointData>
    <CellData>
    </CellData>
  </Piece>
  </UnstructuredGrid>
</VTKFile>
