<?xml version="1.0"?>
<VTKFile type="UnstructuredGrid">
  <UnstructuredGrid>
  <Piece NumberOfPoints="30"  NumberOfCells="85">
    <Points>
      <DataArray type="Float64" NumberOfComponents="3" format="ascii">
0 0 0
4 0 0
8 0 0
12 0 0
16 0 0
16.0026 2.99411 0.000174368
12.0017 2.99485 0.000143829
8 2.99374 0.000189186
3.9983 2.99485 0.000143829
-0.00255868 2.99411 0.000174368
0.00189474 -0.0576943 8
4.00185 -0.0532988 8
8 -0.0598526 8
11.9982 -0.0532988 8
15.9981 -0.0576943 8
15.9977 2.9423 8
11.9959 2.94775 8
8 2.93961 8
4.00414 2.94775 8
0.00231295 2.9423 8
0 0 16
4 0 16
8 0 16
12 0 16
16 0 16
16.0026 2.99411 15.9998
12.0017 2.99485 15.9999
8 2.99374 15.9998
3.9983 2.99485 15.9999
-0.00255868 2.99411 15.9998
      </DataArray>
    </Points>
    <Cells>
      <DataArray type="Int32" Name="connectivity" format="ascii">
0 1
1 2
2 3
3 4
4 5
5 6
6 7
7 8
8 9
9 0
8 1
7 2
6 3
10 11
11 12
12 13
13 14
14 15
15 16
16 17
17 18
18 19
19 10
18 11
17 12
16 13
20 21
21 22
22 23
23 24
24 25
25 26
26 27
27 28
28 29
20 29
28 21
22 27
23 26
20 10
10 0
29 19
19 9
21 11
28 18
11 1
18 8
22 12
27 17
12 2
17 7
23 13
26 16
13 3
16 6
24 14
25 15
15 5
14 4
25 23
29 21
19 11
9 1
15 13
5 3
8 2
6 2
18 12
16 12
28 22
26 22
19 20
19 0
21 18
18 1
22 17
17 2
23 16
16 3
15 24
15 4
20 18
18 0
24 16
16 4
      </DataArray>
      <DataArray type="Int32" Name="offsets" format="ascii">
2
4
6
8
10
12
14
16
18
20
22
24
26
28
30
32
34
36
38
40
42
44
46
48
50
52
54
56
58
60
62
64
66
68
70
72
74
76
78
80
82
84
86
88
90
92
94
96
98
100
102
104
106
108
110
112
114
116
118
120
122
124
126
128
130
132
134
136
138
140
142
144
146
148
150
152
154
156
158
160
162
164
166
168
170
      </DataArray>
      <DataArray type="UInt8" Name="types" format="ascii">
4
4
4
4
4
4
4
4
4
4
4
4
4
4
4
4
4
4
4
4
4
4
4
4
4
4
4
4
4
4
4
4
4
4
4
4
4
4
4
4
4
4
4
4
4
4
4
4
4
4
4
4
4
4
4
4
4
4
4
4
4
4
4
4
4
4
4
4
4
4
4
4
4
4
4
4
4
4
4
4
4
4
4
4
4
      </DataArray>
    </Cells>
    <PointData>
      <DataArray type="Float64" NumberOfComponents="3" Name="Displacement" format="ascii">
0 0 0
0 0 0
0 0 0
0 0 0
0 0 0
0.00255868 -0.005893 0.000174368
0.00170217 -0.00515191 0.000143829
-1.33227e-14 -0.00626101 0.000189186
-0.00170217 -0.00515191 0.000143829
-0.00255868 -0.005893 0.000174368
0.00189474 -0.0576943 0
0.00184788 -0.0532988 0
1.77636e-15 -0.0598526 0
-0.00184788 -0.0532988 0
-0.00189474 -0.0576943 0
-0.00231295 -0.0577042 -3.01981e-14
-0.00413864 -0.0522539 7.10543e-15
-2.66454e-15 -0.0603899 -6.21725e-15
0.00413864 -0.0522539 1.59872e-14
0.00231295 -0.0577042 -3.64153e-14
0 0 0
0 0 0
0 0 0
0 0 0
0 0 0
0.00255868 -0.005893 -0.000174368
0.00170217 -0.00515191 -0.000143829
-1.24345e-14 -0.00626101 -0.000189186
-0.00170217 -0.00515191 -0.000143829
-0.00255868 -0.005893 -0.000174368
      </DataArray> 
      <DataArray type="Float64" NumberOfComponents="3" Name="Velocity" format="ascii">
0 0 0
0 0 0
0 0 0
0 0 0
0 0 0
-4.11718e-05 0.00077875 -3.21218e-06
0.000141178 0.000141823 -1.11494e-06
-2.66906e-15 0.000629893 -2.18566e-06
-0.000141178 0.000141823 -1.11494e-06
4.11718e-05 0.00077875 -3.21218e-06
-0.00011561 8.31779e-05 0
0.000180352 -0.000179076 0
-5.33813e-15 -0.000108333 0
-0.000180352 -0.000179076 0
0.00011561 8.31779e-05 0
2.21054e-05 -0.000151475 3.55875e-15
9.27583e-06 -2.22886e-05 1.86291e-30
-8.89688e-16 5.93808e-06 -4.44844e-15
-9.27583e-06 -2.22886e-05 1.77938e-15
-2.21054e-05 -0.000151475 -2.66906e-15
0 0 0
0 0 0
0 0 0
0 0 0
0 0 0
-4.11718e-05 0.00077875 3.21218e-06
0.000141178 0.000141823 1.11494e-06
8.89688e-15 0.000629893 2.18566e-06
-0.000141178 0.000141823 1.11494e-06
4.11718e-05 0.00077875 3.21218e-06
      </DataArray> 
      <DataArray type="Float64" NumberOfComponents="3" Name="Acceleration" format="ascii">
0 0 0
0 0 0
0 0 0
0 0 0
0 0 0
7.58323e-05 0.000449527 -1.52164e-06
0.000163084 -0.000162989 -6.92449e-07
7.99361e-15 0.000299973 -1.99108e-06
-0.000163084 -0.000162989 -6.92449e-07
-7.58323e-05 0.000449527 -1.52164e-06
-2.80928e-05 -8.26202e-06 0
6.06793e-05 -1.95861e-05 0
5.32907e-15 0.000198758 0
-6.06793e-05 -1.95861e-05 0
2.80928e-05 -8.26202e-06 0
3.06095e-05 -9.50073e-07 1.77636e-15
-3.36683e-05 -3.41976e-05 -3.55271e-15
8.88178e-16 -0.000161654 8.88178e-16
3.36683e-05 -3.41976e-05 -5.32907e-15
-3.06095e-05 -9.50073e-07 9.76996e-15
0 0 0
0 0 0
0 0 0
0 0 0
0 0 0
7.58323e-05 0.000449527 1.52164e-06
0.000163084 -0.000162989 6.92449e-07
5.32907e-15 0.000299973 1.99108e-06
-0.000163084 -0.000162989 6.92449e-07
-7.58323e-05 0.000449527 1.52164e-06
      </DataArray> 
    </PointData>
    <CellData>
    </CellData>
  </Piece>
  </UnstructuredGrid>
</VTKFile>
