<?xml version="1.0"?>
<VTKFile type="UnstructuredGrid">
  <UnstructuredGrid>
  <Piece NumberOfPoints="30"  NumberOfCells="85">
    <Points>
      <DataArray type="Float64" NumberOfComponents="3" format="ascii">
0 0 0
4 0 0
8 0 0
12 0 0
16 0 0
16.0019 2.99316 0.000219273
12.001 2.99495 0.000208946
8 2.99553 0.000290309
3.999 2.99495 0.000208946
-0.00189106 2.99316 0.000219273
0.00206306 -0.0657096 8
4.0015 -0.0635141 8
8 -0.0734869 8
11.9985 -0.0635141 8
15.9979 -0.0657096 8
15.9958 2.93521 8
11.9941 2.93732 8
8 2.92574 8
4.00586 2.93732 8
0.00417177 2.93521 8
0 0 16
4 0 16
8 0 16
12 0 16
16 0 16
16.0019 2.99316 15.9998
12.001 2.99495 15.9998
8 2.99553 15.9997
3.999 2.99495 15.9998
-0.00189106 2.99316 15.9998
      </DataArray>
    </Points>
    <Cells>
      <DataArray type="Int32" Name="connectivity" format="ascii">
0 1
1 2
2 3
3 4
4 5
5 6
6 7
7 8
8 9
9 0
8 1
7 2
6 3
10 11
11 12
12 13
13 14
14 15
15 16
16 17
17 18
18 19
19 10
18 11
17 12
16 13
20 21
21 22
22 23
23 24
24 25
25 26
26 27
27 28
28 29
20 29
28 21
22 27
23 26
20 10
10 0
29 19
19 9
21 11
28 18
11 1
18 8
22 12
27 17
12 2
17 7
23 13
26 16
13 3
16 6
24 14
25 15
15 5
14 4
25 23
29 21
19 11
9 1
15 13
5 3
8 2
6 2
18 12
16 12
28 22
26 22
19 20
19 0
21 18
18 1
22 17
17 2
23 16
16 3
15 24
15 4
20 18
18 0
24 16
16 4
      </DataArray>
      <DataArray type="Int32" Name="offsets" format="ascii">
2
4
6
8
10
12
14
16
18
20
22
24
26
28
30
32
34
36
38
40
42
44
46
48
50
52
54
56
58
60
62
64
66
68
70
72
74
76
78
80
82
84
86
88
90
92
94
96
98
100
102
104
106
108
110
112
114
116
118
120
122
124
126
128
130
132
134
136
138
140
142
144
146
148
150
152
154
156
158
160
162
164
166
168
170
      </DataArray>
      <DataArray type="UInt8" Name="types" format="ascii">
4
4
4
4
4
4
4
4
4
4
4
4
4
4
4
4
4
4
4
4
4
4
4
4
4
4
4
4
4
4
4
4
4
4
4
4
4
4
4
4
4
4
4
4
4
4
4
4
4
4
4
4
4
4
4
4
4
4
4
4
4
4
4
4
4
4
4
4
4
4
4
4
4
4
4
4
4
4
4
4
4
4
4
4
4
      </DataArray>
    </Cells>
    <PointData>
      <DataArray type="Float64" NumberOfComponents="3" Name="Displacement" format="ascii">
0 0 0
0 0 0
0 0 0
0 0 0
0 0 0
0.00189106 -0.006845 0.000219273
0.000996094 -0.00505052 0.000208946
-1.15463e-14 -0.00446776 0.000290309
-0.000996094 -0.00505052 0.000208946
-0.00189106 -0.006845 0.000219273
0.00206306 -0.0657096 0
0.00149981 -0.0635141 0
-8.88178e-16 -0.0734869 0
-0.00149981 -0.0635141 0
-0.00206306 -0.0657096 0
-0.00417177 -0.064794 -1.06581e-14
-0.00586426 -0.062675 -7.10543e-15
-8.88178e-16 -0.0742607 -1.24345e-14
0.00586426 -0.062675 5.32907e-15
0.00417177 -0.064794 -7.10543e-15
0 0 0
0 0 0
0 0 0
0 0 0
0 0 0
0.00189106 -0.006845 -0.000219273
0.000996094 -0.00505052 -0.000208946
-2.75335e-14 -0.00446776 -0.000290309
-0.000996094 -0.00505052 -0.000208946
-0.00189106 -0.006845 -0.000219273
      </DataArray> 
      <DataArray type="Float64" NumberOfComponents="3" Name="Velocity" format="ascii">
0 0 0
0 0 0
0 0 0
0 0 0
0 0 0
-0.00116235 -0.00183404 -9.71265e-06
-0.00141737 0.000692724 -2.66351e-05
-8.89688e-16 0.00213367 -1.82805e-05
0.00141737 0.000692724 -2.66351e-05
0.00116235 -0.00183404 -9.71265e-06
3.66535e-06 -6.56589e-05 0
0.000406065 0.000803898 0
-2.40216e-14 0.00162858 0
-0.000406065 0.000803898 0
-3.66535e-06 -6.56589e-05 0
0.000311134 0.000377857 -8.89688e-15
2.99399e-05 0.000590508 -7.1175e-15
-2.66906e-15 0.00052169 -1.06763e-14
-2.99399e-05 0.000590508 5.33813e-15
-0.000311134 0.000377857 -5.33813e-15
0 0 0
0 0 0
0 0 0
0 0 0
0 0 0
-0.00116235 -0.00183404 9.71265e-06
-0.00141737 0.000692724 2.66351e-05
-2.66906e-15 0.00213367 1.82805e-05
0.00141737 0.000692724 2.66351e-05
0.00116235 -0.00183404 9.71265e-06
      </DataArray> 
      <DataArray type="Float64" NumberOfComponents="3" Name="Acceleration" format="ascii">
0 0 0
0 0 0
0 0 0
0 0 0
0 0 0
0.000585212 0.00181355 -2.01571e-06
0.000842248 -9.99103e-05 1.04634e-06
1.68754e-14 -0.00159062 6.1492e-06
-0.000842248 -9.99103e-05 1.04634e-06
-0.000585212 0.00181355 -2.01571e-06
-0.00036638 0.000798966 0
0.000435155 -0.000130211 0
1.68754e-14 0.000274391 0
-0.000435155 -0.000130211 0
0.00036638 0.000798966 0
4.87883e-05 -0.000177898 7.10543e-15
3.36419e-05 0.000357997 3.55271e-15
2.66454e-15 0.00044424 -5.32907e-15
-3.36419e-05 0.000357997 -1.77636e-15
-4.87883e-05 -0.000177898 -1.07285e-28
0 0 0
0 0 0
0 0 0
0 0 0
0 0 0
0.000585212 0.00181355 2.01571e-06
0.000842248 -9.99103e-05 -1.04634e-06
2.22045e-14 -0.00159062 -6.1492e-06
-0.000842248 -9.99103e-05 -1.04634e-06
-0.000585212 0.00181355 2.01571e-06
      </DataArray> 
    </PointData>
    <CellData>
    </CellData>
  </Piece>
  </UnstructuredGrid>
</VTKFile>
