<?xml version="1.0"?>
<VTKFile type="UnstructuredGrid">
  <UnstructuredGrid>
  <Piece NumberOfPoints="30"  NumberOfCells="85">
    <Points>
      <DataArray type="Float64" NumberOfComponents="3" format="ascii">
0 0 0
4 0 0
8 0 0
12 0 0
16 0 0
16.0036 2.9928 0.00020093
12.0025 2.99331 0.000234497
8 2.99856 0.000281228
3.99749 2.99331 0.000234497
-0.00355893 2.9928 0.00020093
0.000410421 -0.0613939 8
3.99994 -0.0659894 8
8 -0.0782727 8
12.0001 -0.0659894 8
15.9996 -0.0613939 8
15.9935 2.93904 8
11.9921 2.93493 8
8 2.91899 8
4.00787 2.93493 8
0.00651655 2.93904 8
0 0 16
4 0 16
8 0 16
12 0 16
16 0 16
16.0036 2.9928 15.9998
12.0025 2.99331 15.9998
8 2.99856 15.9997
3.99749 2.99331 15.9998
-0.00355893 2.9928 15.9998
      </DataArray>
    </Points>
    <Cells>
      <DataArray type="Int32" Name="connectivity" format="ascii">
0 1
1 2
2 3
3 4
4 5
5 6
6 7
7 8
8 9
9 0
8 1
7 2
6 3
10 11
11 12
12 13
13 14
14 15
15 16
16 17
17 18
18 19
19 10
18 11
17 12
16 13
20 21
21 22
22 23
23 24
24 25
25 26
26 27
27 28
28 29
20 29
28 21
22 27
23 26
20 10
10 0
29 19
19 9
21 11
28 18
11 1
18 8
22 12
27 17
12 2
17 7
23 13
26 16
13 3
16 6
24 14
25 15
15 5
14 4
25 23
29 21
19 11
9 1
15 13
5 3
8 2
6 2
18 12
16 12
28 22
26 22
19 20
19 0
21 18
18 1
22 17
17 2
23 16
16 3
15 24
15 4
20 18
18 0
24 16
16 4
      </DataArray>
      <DataArray type="Int32" Name="offsets" format="ascii">
2
4
6
8
10
12
14
16
18
20
22
24
26
28
30
32
34
36
38
40
42
44
46
48
50
52
54
56
58
60
62
64
66
68
70
72
74
76
78
80
82
84
86
88
90
92
94
96
98
100
102
104
106
108
110
112
114
116
118
120
122
124
126
128
130
132
134
136
138
140
142
144
146
148
150
152
154
156
158
160
162
164
166
168
170
      </DataArray>
      <DataArray type="UInt8" Name="types" format="ascii">
4
4
4
4
4
4
4
4
4
4
4
4
4
4
4
4
4
4
4
4
4
4
4
4
4
4
4
4
4
4
4
4
4
4
4
4
4
4
4
4
4
4
4
4
4
4
4
4
4
4
4
4
4
4
4
4
4
4
4
4
4
4
4
4
4
4
4
4
4
4
4
4
4
4
4
4
4
4
4
4
4
4
4
4
4
      </DataArray>
    </Cells>
    <PointData>
      <DataArray type="Float64" NumberOfComponents="3" Name="Displacement" format="ascii">
0 0 0
0 0 0
0 0 0
0 0 0
0 0 0
0.00355893 -0.0072025 0.00020093
0.00251331 -0.00668509 0.000234497
3.55271e-15 -0.00144278 0.000281228
-0.00251331 -0.00668509 0.000234497
-0.00355893 -0.0072025 0.00020093
0.000410421 -0.0613939 0
-5.52826e-05 -0.0659894 0
3.37508e-14 -0.0782727 0
5.52826e-05 -0.0659894 0
-0.000410421 -0.0613939 0
-0.00651655 -0.060957 1.59872e-14
-0.00786723 -0.0650689 5.32907e-15
3.55271e-14 -0.0810121 -1.5099e-14
0.00786723 -0.0650689 7.10543e-15
0.00651655 -0.060957 1.77636e-15
0 0 0
0 0 0
0 0 0
0 0 0
0 0 0
0.00355893 -0.0072025 -0.00020093
0.00251331 -0.00668509 -0.000234497
-4.44089e-15 -0.00144278 -0.000281228
-0.00251331 -0.00668509 -0.000234497
-0.00355893 -0.0072025 -0.00020093
      </DataArray> 
      <DataArray type="Float64" NumberOfComponents="3" Name="Velocity" format="ascii">
0 0 0
0 0 0
0 0 0
0 0 0
0 0 0
0.00410855 0.00239595 4.91923e-05
0.00277329 0.00247234 5.26663e-05
-4.73317e-30 0.00203398 5.68926e-05
-0.00277329 0.00247234 5.26663e-05
-0.00410855 0.00239595 4.91923e-05
0.00066627 -0.00675107 0
0.000304934 -0.00597109 0
7.1175e-15 -0.00643177 0
-0.000304934 -0.00597109 0
-0.00066627 -0.00675107 0
-3.168e-05 -0.00490713 -1.77938e-15
-0.000645508 -0.00523906 3.55875e-15
5.33813e-15 -0.00698983 -4.44844e-15
0.000645508 -0.00523906 5.33813e-15
3.168e-05 -0.00490713 1.77938e-15
0 0 0
0 0 0
0 0 0
0 0 0
0 0 0
0.00410855 0.00239595 -4.91923e-05
0.00277329 0.00247234 -5.26663e-05
-2.66906e-15 0.00203398 -5.68926e-05
-0.00277329 0.00247234 -5.26663e-05
-0.00410855 0.00239595 -4.91923e-05
      </DataArray> 
      <DataArray type="Float64" NumberOfComponents="3" Name="Acceleration" format="ascii">
0 0 0
0 0 0
0 0 0
0 0 0
0 0 0
-0.000103665 0.00173023 -5.11474e-06
-0.000139549 0.00117059 -4.52578e-06
7.10543e-15 -0.00476998 4.48294e-05
0.000139549 0.00117059 -4.52578e-06
0.000103665 0.00173023 -5.11474e-06
-0.000306499 0.000440949 0
0.000919132 0.000127708 0
-1.77636e-15 -0.000779737 0
-0.000919132 0.000127708 0
0.000306499 0.000440949 0
1.96133e-05 -0.000171421 -1.77636e-15
0.000429768 0.000448945 -1.77636e-15
-3.55271e-15 0.00162988 2.66454e-15
-0.000429768 0.000448945 3.3921e-29
-1.96133e-05 -0.000171421 1.77636e-15
0 0 0
0 0 0
0 0 0
0 0 0
0 0 0
-0.000103665 0.00173023 5.11474e-06
-0.000139549 0.00117059 4.52578e-06
2.66454e-15 -0.00476998 -4.48294e-05
0.000139549 0.00117059 4.52578e-06
0.000103665 0.00173023 5.11474e-06
      </DataArray> 
    </PointData>
    <CellData>
    </CellData>
  </Piece>
  </UnstructuredGrid>
</VTKFile>
