<?xml version="1.0"?>
<VTKFile type="UnstructuredGrid">
  <UnstructuredGrid>
  <Piece NumberOfPoints="30"  NumberOfCells="85">
    <Points>
      <DataArray type="Float64" NumberOfComponents="3" format="ascii">
0 0 0
4 0 0
8 0 0
12 0 0
16 0 0
16.0027 2.99453 0.000174352
12.0019 2.99477 0.000142319
8 2.99377 0.000192444
3.99811 2.99477 0.000142319
-0.00267195 2.99453 0.000174352
0.00187336 -0.0580002 8
4.00187 -0.0538157 8
8 -0.0602517 8
11.9981 -0.0538157 8
15.9981 -0.0580002 8
15.9977 2.94188 8
11.9958 2.94722 8
8 2.93884 8
4.00423 2.94722 8
0.0023496 2.94188 8
0 0 16
4 0 16
8 0 16
12 0 16
16 0 16
16.0027 2.99453 15.9998
12.0019 2.99477 15.9999
8 2.99377 15.9998
3.99811 2.99477 15.9999
-0.00267195 2.99453 15.9998
      </DataArray>
    </Points>
    <Cells>
      <DataArray type="Int32" Name="connectivity" format="ascii">
0 1
1 2
2 3
3 4
4 5
5 6
6 7
7 8
8 9
9 0
8 1
7 2
6 3
10 11
11 12
12 13
13 14
14 15
15 16
16 17
17 18
18 19
19 10
18 11
17 12
16 13
20 21
21 22
22 23
23 24
24 25
25 26
26 27
27 28
28 29
20 29
28 21
22 27
23 26
20 10
10 0
29 19
19 9
21 11
28 18
11 1
18 8
22 12
27 17
12 2
17 7
23 13
26 16
13 3
16 6
24 14
25 15
15 5
14 4
25 23
29 21
19 11
9 1
15 13
5 3
8 2
6 2
18 12
16 12
28 22
26 22
19 20
19 0
21 18
18 1
22 17
17 2
23 16
16 3
15 24
15 4
20 18
18 0
24 16
16 4
      </DataArray>
      <DataArray type="Int32" Name="offsets" format="ascii">
2
4
6
8
10
12
14
16
18
20
22
24
26
28
30
32
34
36
38
40
42
44
46
48
50
52
54
56
58
60
62
64
66
68
70
72
74
76
78
80
82
84
86
88
90
92
94
96
98
100
102
104
106
108
110
112
114
116
118
120
122
124
126
128
130
132
134
136
138
140
142
144
146
148
150
152
154
156
158
160
162
164
166
168
170
      </DataArray>
      <DataArray type="UInt8" Name="types" format="ascii">
4
4
4
4
4
4
4
4
4
4
4
4
4
4
4
4
4
4
4
4
4
4
4
4
4
4
4
4
4
4
4
4
4
4
4
4
4
4
4
4
4
4
4
4
4
4
4
4
4
4
4
4
4
4
4
4
4
4
4
4
4
4
4
4
4
4
4
4
4
4
4
4
4
4
4
4
4
4
4
4
4
4
4
4
4
      </DataArray>
    </Cells>
    <PointData>
      <DataArray type="Float64" NumberOfComponents="3" Name="Displacement" format="ascii">
0 0 0
0 0 0
0 0 0
0 0 0
0 0 0
0.00267195 -0.0054656 0.000174352
0.00189091 -0.00523021 0.000142319
0 -0.00623336 0.000192444
-0.00189091 -0.00523021 0.000142319
-0.00267195 -0.0054656 0.000174352
0.00187336 -0.0580002 0
0.00187246 -0.0538157 0
1.42109e-14 -0.0602517 0
-0.00187246 -0.0538157 0
-0.00187336 -0.0580002 0
-0.0023496 -0.0581152 3.73035e-14
-0.00423288 -0.05278 -8.88178e-15
1.06581e-14 -0.0611591 5.32907e-15
0.00423288 -0.05278 5.32907e-15
0.0023496 -0.0581152 2.13163e-14
0 0 0
0 0 0
0 0 0
0 0 0
0 0 0
0.00267195 -0.0054656 -0.000174352
0.00189091 -0.00523021 -0.000142319
5.32907e-15 -0.00623336 -0.000192444
-0.00189091 -0.00523021 -0.000142319
-0.00267195 -0.0054656 -0.000174352
      </DataArray> 
      <DataArray type="Float64" NumberOfComponents="3" Name="Velocity" format="ascii">
0 0 0
0 0 0
0 0 0
0 0 0
0 0 0
-5.61905e-06 -0.000370686 1.53571e-06
-8.41168e-05 -3.91571e-05 -1.80262e-07
-1.77938e-15 0.000110167 -5.28676e-07
8.41168e-05 -3.91571e-05 -1.80262e-07
5.61905e-06 -0.000370686 1.53571e-06
-7.26531e-05 2.71694e-05 0
8.30213e-05 9.17064e-06 0
3.55875e-15 6.13831e-05 0
-8.30213e-05 9.17064e-06 0
7.26531e-05 2.71694e-05 0
9.22919e-06 -1.56384e-05 -1.24556e-14
-1.78173e-05 -2.11552e-05 7.1175e-15
2.13525e-14 -5.45248e-05 1.24556e-14
1.78173e-05 -2.11552e-05 7.1175e-15
-9.22919e-06 -1.56384e-05 -5.33813e-15
0 0 0
0 0 0
0 0 0
0 0 0
0 0 0
-5.61905e-06 -0.000370686 -1.53571e-06
-8.41168e-05 -3.91571e-05 1.80262e-07
5.33813e-15 0.000110167 5.28676e-07
8.41168e-05 -3.91571e-05 1.80262e-07
5.61905e-06 -0.000370686 -1.53571e-06
      </DataArray> 
      <DataArray type="Float64" NumberOfComponents="3" Name="Acceleration" format="ascii">
0 0 0
0 0 0
0 0 0
0 0 0
0 0 0
-3.43943e-05 -9.09332e-05 5.022e-07
-4.17995e-05 -0.00012787 6.67764e-07
-1.77636e-14 0.000275205 -1.14794e-06
4.17995e-05 -0.00012787 6.67764e-07
3.43943e-05 -9.09332e-05 5.022e-07
1.37258e-06 -9.91891e-05 0
1.2295e-05 -1.48089e-05 0
3.55271e-15 -6.17079e-05 0
-1.2295e-05 -1.48089e-05 0
-1.37258e-06 -9.91891e-05 0
7.835e-08 5.09367e-05 -5.32907e-15
1.13255e-05 4.55848e-06 5.32907e-15
7.10543e-15 3.4688e-05 8.88178e-15
-1.13255e-05 4.55848e-06 -1.77636e-15
-7.835e-08 5.09367e-05 -3.55271e-15
0 0 0
0 0 0
0 0 0
0 0 0
0 0 0
-3.43943e-05 -9.09332e-05 -5.022e-07
-4.17995e-05 -0.00012787 -6.67764e-07
5.32907e-15 0.000275205 1.14794e-06
4.17995e-05 -0.00012787 -6.67764e-07
3.43943e-05 -9.09332e-05 -5.022e-07
      </DataArray> 
    </PointData>
    <CellData>
    </CellData>
  </Piece>
  </UnstructuredGrid>
</VTKFile>
