<?xml version="1.0"?>
<VTKFile type="UnstructuredGrid">
  <UnstructuredGrid>
  <Piece NumberOfPoints="30"  NumberOfCells="85">
    <Points>
      <DataArray type="Float64" NumberOfComponents="3" format="ascii">
0 0 0
4 0 0
8 0 0
12 0 0
16 0 0
16.0044 2.99507 0.000130215
12.003 2.99563 0.000106985
8 2.99546 0.000184005
3.99705 2.99563 0.000106985
-0.00436458 2.99507 0.000130215
0.00141313 -0.0529077 8
4.00143 -0.0509597 8
8 -0.0578152 8
11.9986 -0.0509597 8
15.9986 -0.0529077 8
15.9974 2.94595 8
11.9958 2.94964 8
8 2.94118 8
4.00419 2.94964 8
0.00258443 2.94595 8
0 0 16
4 0 16
8 0 16
12 0 16
16 0 16
16.0044 2.99507 15.9999
12.003 2.99563 15.9999
8 2.99546 15.9998
3.99705 2.99563 15.9999
-0.00436458 2.99507 15.9999
      </DataArray>
    </Points>
    <Cells>
      <DataArray type="Int32" Name="connectivity" format="ascii">
0 1
1 2
2 3
3 4
4 5
5 6
6 7
7 8
8 9
9 0
8 1
7 2
6 3
10 11
11 12
12 13
13 14
14 15
15 16
16 17
17 18
18 19
19 10
18 11
17 12
16 13
20 21
21 22
22 23
23 24
24 25
25 26
26 27
27 28
28 29
20 29
28 21
22 27
23 26
20 10
10 0
29 19
19 9
21 11
28 18
11 1
18 8
22 12
27 17
12 2
17 7
23 13
26 16
13 3
16 6
24 14
25 15
15 5
14 4
25 23
29 21
19 11
9 1
15 13
5 3
8 2
6 2
18 12
16 12
28 22
26 22
19 20
19 0
21 18
18 1
22 17
17 2
23 16
16 3
15 24
15 4
20 18
18 0
24 16
16 4
      </DataArray>
      <DataArray type="Int32" Name="offsets" format="ascii">
2
4
6
8
10
12
14
16
18
20
22
24
26
28
30
32
34
36
38
40
42
44
46
48
50
52
54
56
58
60
62
64
66
68
70
72
74
76
78
80
82
84
86
88
90
92
94
96
98
100
102
104
106
108
110
112
114
116
118
120
122
124
126
128
130
132
134
136
138
140
142
144
146
148
150
152
154
156
158
160
162
164
166
168
170
      </DataArray>
      <DataArray type="UInt8" Name="types" format="ascii">
4
4
4
4
4
4
4
4
4
4
4
4
4
4
4
4
4
4
4
4
4
4
4
4
4
4
4
4
4
4
4
4
4
4
4
4
4
4
4
4
4
4
4
4
4
4
4
4
4
4
4
4
4
4
4
4
4
4
4
4
4
4
4
4
4
4
4
4
4
4
4
4
4
4
4
4
4
4
4
4
4
4
4
4
4
      </DataArray>
    </Cells>
    <PointData>
      <DataArray type="Float64" NumberOfComponents="3" Name="Displacement" format="ascii">
0 0 0
0 0 0
0 0 0
0 0 0
0 0 0
0.00436458 -0.00492622 0.000130215
0.00295035 -0.00437413 0.000106985
0 -0.00453701 0.000184005
-0.00295035 -0.00437413 0.000106985
-0.00436458 -0.00492622 0.000130215
0.00141313 -0.0529077 0
0.00142632 -0.0509597 0
-3.19744e-14 -0.0578152 0
-0.00142632 -0.0509597 0
-0.00141313 -0.0529077 0
-0.00258443 -0.0540523 -6.21725e-15
-0.00419147 -0.0503623 -9.76996e-15
-2.30926e-14 -0.0588176 3.55271e-15
0.00419147 -0.0503623 5.32907e-15
0.00258443 -0.0540523 5.32907e-15
0 0 0
0 0 0
0 0 0
0 0 0
0 0 0
0.00436458 -0.00492622 -0.000130215
0.00295035 -0.00437413 -0.000106985
-8.88178e-16 -0.00453701 -0.000184005
-0.00295035 -0.00437413 -0.000106985
-0.00436458 -0.00492622 -0.000130215
      </DataArray> 
      <DataArray type="Float64" NumberOfComponents="3" Name="Velocity" format="ascii">
0 0 0
0 0 0
0 0 0
0 0 0
0 0 0
0.000991337 0.00160335 1.4739e-05
0.000978404 -0.000152857 7.75163e-07
-8.89688e-15 -0.00203095 2.31238e-05
-0.000978404 -0.000152857 7.75163e-07
-0.000991337 0.00160335 1.4739e-05
-2.7139e-05 -0.00109516 0
-0.000388047 -0.00173269 0
-1.77938e-14 -0.00229785 0
0.000388047 -0.00173269 0
2.7139e-05 -0.00109516 0
-0.000176991 -0.00116323 -4.44844e-15
-8.92522e-05 -0.00119481 -8.89688e-16
1.77938e-15 -0.00126247 -1.77938e-15
8.92522e-05 -0.00119481 3.55875e-15
0.000176991 -0.00116323 -7.1175e-15
0 0 0
0 0 0
0 0 0
0 0 0
0 0 0
0.000991337 0.00160335 -1.4739e-05
0.000978404 -0.000152857 -7.75163e-07
-8.89688e-16 -0.00203095 -2.31238e-05
-0.000978404 -0.000152857 -7.75163e-07
-0.000991337 0.00160335 -1.4739e-05
      </DataArray> 
      <DataArray type="Float64" NumberOfComponents="3" Name="Acceleration" format="ascii">
0 0 0
0 0 0
0 0 0
0 0 0
0 0 0
-0.00132166 -0.00124838 8.94573e-06
-0.000861238 -0.00124511 9.03735e-06
-5.77446e-28 -0.00148427 7.55045e-08
0.000861238 -0.00124511 9.03735e-06
0.00132166 -0.00124838 8.94573e-06
8.71368e-06 -0.000984981 0
0.000165594 -0.000235246 0
1.77636e-14 -8.52375e-05 0
-0.000165594 -0.000235246 0
-8.71368e-06 -0.000984981 0
5.5863e-05 0.000340465 7.99361e-15
-3.12283e-06 3.99248e-05 4.44089e-15
5.32907e-15 9.20615e-07 -3.55271e-15
3.12283e-06 3.99248e-05 -1.77636e-15
-5.5863e-05 0.000340465 1.77636e-15
0 0 0
0 0 0
0 0 0
0 0 0
0 0 0
-0.00132166 -0.00124838 -8.94573e-06
-0.000861238 -0.00124511 -9.03735e-06
-7.99361e-15 -0.00148427 -7.55045e-08
0.000861238 -0.00124511 -9.03735e-06
0.00132166 -0.00124838 -8.94573e-06
      </DataArray> 
    </PointData>
    <CellData>
    </CellData>
  </Piece>
  </UnstructuredGrid>
</VTKFile>
