<?xml version="1.0"?>
<VTKFile type="UnstructuredGrid">
  <UnstructuredGrid>
  <Piece NumberOfPoints="30"  NumberOfCells="85">
    <Points>
      <DataArray type="Float64" NumberOfComponents="3" format="ascii">
0 0 0
4 0 0
8 0 0
12 0 0
16 0 0
16.0027 2.99531 0.000181356
12.002 2.99463 0.000149373
8 2.9939 0.000205798
3.99796 2.99463 0.000149373
-0.00265964 2.99531 0.000181356
0.00202387 -0.0597706 8
4.00169 -0.0558535 8
8 -0.062545 8
11.9983 -0.0558535 8
15.998 -0.0597706 8
15.9973 2.94047 8
11.9955 2.94531 8
8 2.9365 8
4.00453 2.94531 8
0.00267485 2.94047 8
0 0 16
4 0 16
8 0 16
12 0 16
16 0 16
16.0027 2.99531 15.9998
12.002 2.99463 15.9999
8 2.9939 15.9998
3.99796 2.99463 15.9999
-0.00265964 2.99531 15.9998
      </DataArray>
    </Points>
    <Cells>
      <DataArray type="Int32" Name="connectivity" format="ascii">
0 1
1 2
2 3
3 4
4 5
5 6
6 7
7 8
8 9
9 0
8 1
7 2
6 3
10 11
11 12
12 13
13 14
14 15
15 16
16 17
17 18
18 19
19 10
18 11
17 12
16 13
20 21
21 22
22 23
23 24
24 25
25 26
26 27
27 28
28 29
20 29
28 21
22 27
23 26
20 10
10 0
29 19
19 9
21 11
28 18
11 1
18 8
22 12
27 17
12 2
17 7
23 13
26 16
13 3
16 6
24 14
25 15
15 5
14 4
25 23
29 21
19 11
9 1
15 13
5 3
8 2
6 2
18 12
16 12
28 22
26 22
19 20
19 0
21 18
18 1
22 17
17 2
23 16
16 3
15 24
15 4
20 18
18 0
24 16
16 4
      </DataArray>
      <DataArray type="Int32" Name="offsets" format="ascii">
2
4
6
8
10
12
14
16
18
20
22
24
26
28
30
32
34
36
38
40
42
44
46
48
50
52
54
56
58
60
62
64
66
68
70
72
74
76
78
80
82
84
86
88
90
92
94
96
98
100
102
104
106
108
110
112
114
116
118
120
122
124
126
128
130
132
134
136
138
140
142
144
146
148
150
152
154
156
158
160
162
164
166
168
170
      </DataArray>
      <DataArray type="UInt8" Name="types" format="ascii">
4
4
4
4
4
4
4
4
4
4
4
4
4
4
4
4
4
4
4
4
4
4
4
4
4
4
4
4
4
4
4
4
4
4
4
4
4
4
4
4
4
4
4
4
4
4
4
4
4
4
4
4
4
4
4
4
4
4
4
4
4
4
4
4
4
4
4
4
4
4
4
4
4
4
4
4
4
4
4
4
4
4
4
4
4
      </DataArray>
    </Cells>
    <PointData>
      <DataArray type="Float64" NumberOfComponents="3" Name="Displacement" format="ascii">
0 0 0
0 0 0
0 0 0
0 0 0
0 0 0
0.00265964 -0.00468588 0.000181356
0.00203557 -0.0053677 0.000149373
-2.66454e-14 -0.00610392 0.000205798
-0.00203557 -0.0053677 0.000149373
-0.00265964 -0.00468588 0.000181356
0.00202387 -0.0597706 0
0.00169228 -0.0558535 0
8.88178e-15 -0.062545 0
-0.00169228 -0.0558535 0
-0.00202387 -0.0597706 0
-0.00267485 -0.0595306 -2.22045e-14
-0.00453161 -0.0546864 -1.77636e-14
4.08562e-14 -0.0634977 -1.77636e-15
0.00453161 -0.0546864 0
0.00267485 -0.0595306 -4.44089e-15
0 0 0
0 0 0
0 0 0
0 0 0
0 0 0
0.00265964 -0.00468588 -0.000181356
0.00203557 -0.0053677 -0.000149373
-2.13163e-14 -0.00610392 -0.000205798
-0.00203557 -0.0053677 -0.000149373
-0.00265964 -0.00468588 -0.000181356
      </DataArray> 
      <DataArray type="Float64" NumberOfComponents="3" Name="Velocity" format="ascii">
0 0 0
0 0 0
0 0 0
0 0 0
0 0 0
0.000616364 0.000502756 -4.5305e-06
0.000446081 0.000474975 1.68592e-06
-1.77938e-15 0.00108708 -1.8208e-06
-0.000446081 0.000474975 1.68592e-06
-0.000616364 0.000502756 -4.5305e-06
-0.000134156 0.000294422 0
0.000157102 -0.000108693 0
8.89688e-15 -0.000296517 0
-0.000157102 -0.000108693 0
0.000134156 0.000294422 0
4.73804e-05 4.87938e-05 8.00719e-15
4.94132e-05 6.87034e-05 -1.77938e-15
1.77938e-15 0.000171101 -2.36658e-30
-4.94132e-05 6.87034e-05 5.33813e-15
-4.73804e-05 4.87938e-05 -6.22781e-15
0 0 0
0 0 0
0 0 0
0 0 0
0 0 0
0.000616364 0.000502756 4.5305e-06
0.000446081 0.000474975 -1.68592e-06
-5.33813e-15 0.00108708 1.8208e-06
-0.000446081 0.000474975 -1.68592e-06
-0.000616364 0.000502756 4.5305e-06
      </DataArray> 
      <DataArray type="Float64" NumberOfComponents="3" Name="Acceleration" format="ascii">
0 0 0
0 0 0
0 0 0
0 0 0
0 0 0
-0.000141937 -0.00103803 3.48798e-06
-0.000247738 -2.79768e-05 1.92383e-06
1.59872e-14 0.000131809 4.42054e-07
0.000247738 -2.79768e-05 1.92383e-06
0.000141937 -0.00103803 3.48798e-06
-0.000213893 0.000207318 0
0.000260844 6.1559e-05 0
5.32907e-15 -8.53512e-05 0
-0.000260844 6.1559e-05 0
0.000213893 0.000207318 0
1.51645e-05 -5.08667e-05 6.21725e-15
3.37186e-05 3.87198e-05 3.55271e-15
-8.88178e-15 0.000138864 -1.77636e-15
-3.37186e-05 3.87198e-05 -3.55271e-15
-1.51645e-05 -5.08667e-05 2.66454e-15
0 0 0
0 0 0
0 0 0
0 0 0
0 0 0
-0.000141937 -0.00103803 -3.48798e-06
-0.000247738 -2.79768e-05 -1.92383e-06
2.4869e-14 0.000131809 -4.42054e-07
0.000247738 -2.79768e-05 -1.92383e-06
0.000141937 -0.00103803 -3.48798e-06
      </DataArray> 
    </PointData>
    <CellData>
    </CellData>
  </Piece>
  </UnstructuredGrid>
</VTKFile>
