<?xml version="1.0"?>
<VTKFile type="UnstructuredGrid">
  <UnstructuredGrid>
  <Piece NumberOfPoints="30"  NumberOfCells="85">
    <Points>
      <DataArray type="Float64" NumberOfComponents="3" format="ascii">
0 0 0
4 0 0
8 0 0
12 0 0
16 0 0
16.0025 2.99421 0.000175862
12.0017 2.99451 0.000144891
8 2.99407 0.000190453
3.99829 2.99451 0.000144891
-0.00246747 2.99421 0.000175862
0.00190522 -0.0580365 8
4.00185 -0.0537806 8
8 -0.0602404 8
11.9981 -0.0537806 8
15.9981 -0.0580365 8
15.9977 2.94185 8
11.9958 2.94727 8
8 2.93894 8
4.00421 2.94727 8
0.00233196 2.94185 8
0 0 16
4 0 16
8 0 16
12 0 16
16 0 16
16.0025 2.99421 15.9998
12.0017 2.99451 15.9999
8 2.99407 15.9998
3.99829 2.99451 15.9999
-0.00246747 2.99421 15.9998
      </DataArray>
    </Points>
    <Cells>
      <DataArray type="Int32" Name="connectivity" format="ascii">
0 1
1 2
2 3
3 4
4 5
5 6
6 7
7 8
8 9
9 0
8 1
7 2
6 3
10 11
11 12
12 13
13 14
14 15
15 16
16 17
17 18
18 19
19 10
18 11
17 12
16 13
20 21
21 22
22 23
23 24
24 25
25 26
26 27
27 28
28 29
20 29
28 21
22 27
23 26
20 10
10 0
29 19
19 9
21 11
28 18
11 1
18 8
22 12
27 17
12 2
17 7
23 13
26 16
13 3
16 6
24 14
25 15
15 5
14 4
25 23
29 21
19 11
9 1
15 13
5 3
8 2
6 2
18 12
16 12
28 22
26 22
19 20
19 0
21 18
18 1
22 17
17 2
23 16
16 3
15 24
15 4
20 18
18 0
24 16
16 4
      </DataArray>
      <DataArray type="Int32" Name="offsets" format="ascii">
2
4
6
8
10
12
14
16
18
20
22
24
26
28
30
32
34
36
38
40
42
44
46
48
50
52
54
56
58
60
62
64
66
68
70
72
74
76
78
80
82
84
86
88
90
92
94
96
98
100
102
104
106
108
110
112
114
116
118
120
122
124
126
128
130
132
134
136
138
140
142
144
146
148
150
152
154
156
158
160
162
164
166
168
170
      </DataArray>
      <DataArray type="UInt8" Name="types" format="ascii">
4
4
4
4
4
4
4
4
4
4
4
4
4
4
4
4
4
4
4
4
4
4
4
4
4
4
4
4
4
4
4
4
4
4
4
4
4
4
4
4
4
4
4
4
4
4
4
4
4
4
4
4
4
4
4
4
4
4
4
4
4
4
4
4
4
4
4
4
4
4
4
4
4
4
4
4
4
4
4
4
4
4
4
4
4
      </DataArray>
    </Cells>
    <PointData>
      <DataArray type="Float64" NumberOfComponents="3" Name="Displacement" format="ascii">
0 0 0
0 0 0
0 0 0
0 0 0
0 0 0
0.00246747 -0.00579474 0.000175862
0.00171095 -0.00548971 0.000144891
-1.33227e-14 -0.0059271 0.000190453
-0.00171095 -0.00548971 0.000144891
-0.00246747 -0.00579474 0.000175862
0.00190522 -0.0580365 0
0.00185342 -0.0537806 0
-1.77636e-15 -0.0602404 0
-0.00185342 -0.0537806 0
-0.00190522 -0.0580365 0
-0.00233196 -0.0581505 2.84217e-14
-0.00420633 -0.0527298 -1.15463e-14
-2.30926e-14 -0.0610584 -1.77636e-14
0.00420633 -0.0527298 8.88178e-15
0.00233196 -0.0581505 2.84217e-14
0 0 0
0 0 0
0 0 0
0 0 0
0 0 0
0.00246747 -0.00579474 -0.000175862
0.00171095 -0.00548971 -0.000144891
-2.66454e-15 -0.0059271 -0.000190453
-0.00171095 -0.00548971 -0.000144891
-0.00246747 -0.00579474 -0.000175862
      </DataArray> 
      <DataArray type="Float64" NumberOfComponents="3" Name="Velocity" format="ascii">
0 0 0
0 0 0
0 0 0
0 0 0
0 0 0
5.55285e-05 7.0938e-06 1.34491e-07
2.61692e-05 0.000112876 -2.28457e-07
-1.69041e-14 -0.000312234 1.18492e-06
-2.61692e-05 0.000112876 -2.28457e-07
-5.55285e-05 7.0938e-06 1.34491e-07
2.11146e-05 -8.33681e-05 0
-5.37768e-07 -5.93127e-05 0
-7.1175e-15 -9.55329e-05 0
5.37768e-07 -5.93127e-05 0
-2.11146e-05 -8.33681e-05 0
5.39849e-06 5.25448e-05 -6.31089e-30
1.62628e-05 2.12379e-05 -2.66906e-15
-1.70924e-31 5.41022e-05 1.60144e-14
-1.62628e-05 2.12379e-05 -5.33813e-15
-5.39849e-06 5.25448e-05 1.06763e-14
0 0 0
0 0 0
0 0 0
0 0 0
0 0 0
5.55285e-05 7.0938e-06 -1.34491e-07
2.61692e-05 0.000112876 2.28457e-07
1.51247e-14 -0.000312234 -1.18492e-06
-2.61692e-05 0.000112876 2.28457e-07
-5.55285e-05 7.0938e-06 -1.34491e-07
      </DataArray> 
      <DataArray type="Float64" NumberOfComponents="3" Name="Acceleration" format="ascii">
0 0 0
0 0 0
0 0 0
0 0 0
0 0 0
0.000156676 0.000363124 -7.96959e-07
0.000174354 0.000175909 -7.41456e-07
4.44089e-15 -4.23044e-05 1.64299e-07
-0.000174354 0.000175909 -7.41456e-07
-0.000156676 0.000363124 -7.96959e-07
-3.25219e-05 -9.7425e-05 0
5.87134e-05 -1.45169e-05 0
-8.88178e-15 5.20367e-06 0
-5.87134e-05 -1.45169e-05 0
3.25219e-05 -9.7425e-05 0
1.22708e-05 5.80971e-05 -3.55271e-15
-2.63544e-06 -6.45713e-06 -8.88178e-16
5.32907e-15 -1.02886e-05 1.06581e-14
2.63544e-06 -6.45713e-06 -5.32907e-15
-1.22708e-05 5.80971e-05 -3.55271e-15
0 0 0
0 0 0
0 0 0
0 0 0
0 0 0
0.000156676 0.000363124 7.96959e-07
0.000174354 0.000175909 7.41456e-07
1.15463e-14 -4.23044e-05 -1.64299e-07
-0.000174354 0.000175909 7.41456e-07
-0.000156676 0.000363124 7.96959e-07
      </DataArray> 
    </PointData>
    <CellData>
    </CellData>
  </Piece>
  </UnstructuredGrid>
</VTKFile>
