<?xml version="1.0"?>
<VTKFile type="UnstructuredGrid">
  <UnstructuredGrid>
  <Piece NumberOfPoints="30"  NumberOfCells="85">
    <Points>
      <DataArray type="Float64" NumberOfComponents="3" format="ascii">
0 0 0
4 0 0
8 0 0
12 0 0
16 0 0
16.0026 2.99455 0.000254385
12.0017 2.99513 0.000174443
8 2.99616 0.000255969
3.99829 2.99513 0.000174443
-0.00260856 2.99455 0.000254385
0.00191362 -0.0669796 8
4.00207 -0.0621456 8
8 -0.069438 8
11.9979 -0.0621456 8
15.9981 -0.0669796 8
15.997 2.93256 8
11.9949 2.93882 8
8 2.92926 8
4.00506 2.93882 8
0.00300786 2.93256 8
0 0 16
4 0 16
8 0 16
12 0 16
16 0 16
16.0026 2.99455 15.9997
12.0017 2.99513 15.9998
8 2.99616 15.9997
3.99829 2.99513 15.9998
-0.00260856 2.99455 15.9997
      </DataArray>
    </Points>
    <Cells>
      <DataArray type="Int32" Name="connectivity" format="ascii">
0 1
1 2
2 3
3 4
4 5
5 6
6 7
7 8
8 9
9 0
8 1
7 2
6 3
10 11
11 12
12 13
13 14
14 15
15 16
16 17
17 18
18 19
19 10
18 11
17 12
16 13
20 21
21 22
22 23
23 24
24 25
25 26
26 27
27 28
28 29
20 29
28 21
22 27
23 26
20 10
10 0
29 19
19 9
21 11
28 18
11 1
18 8
22 12
27 17
12 2
17 7
23 13
26 16
13 3
16 6
24 14
25 15
15 5
14 4
25 23
29 21
19 11
9 1
15 13
5 3
8 2
6 2
18 12
16 12
28 22
26 22
19 20
19 0
21 18
18 1
22 17
17 2
23 16
16 3
15 24
15 4
20 18
18 0
24 16
16 4
      </DataArray>
      <DataArray type="Int32" Name="offsets" format="ascii">
2
4
6
8
10
12
14
16
18
20
22
24
26
28
30
32
34
36
38
40
42
44
46
48
50
52
54
56
58
60
62
64
66
68
70
72
74
76
78
80
82
84
86
88
90
92
94
96
98
100
102
104
106
108
110
112
114
116
118
120
122
124
126
128
130
132
134
136
138
140
142
144
146
148
150
152
154
156
158
160
162
164
166
168
170
      </DataArray>
      <DataArray type="UInt8" Name="types" format="ascii">
4
4
4
4
4
4
4
4
4
4
4
4
4
4
4
4
4
4
4
4
4
4
4
4
4
4
4
4
4
4
4
4
4
4
4
4
4
4
4
4
4
4
4
4
4
4
4
4
4
4
4
4
4
4
4
4
4
4
4
4
4
4
4
4
4
4
4
4
4
4
4
4
4
4
4
4
4
4
4
4
4
4
4
4
4
      </DataArray>
    </Cells>
    <PointData>
      <DataArray type="Float64" NumberOfComponents="3" Name="Displacement" format="ascii">
0 0 0
0 0 0
0 0 0
0 0 0
0 0 0
0.00260856 -0.00544548 0.000254385
0.0017088 -0.00487156 0.000174443
-8.88178e-16 -0.00383774 0.000255969
-0.0017088 -0.00487156 0.000174443
-0.00260856 -0.00544548 0.000254385
0.00191362 -0.0669796 0
0.00206852 -0.0621456 0
-6.4837e-14 -0.069438 0
-0.00206852 -0.0621456 0
-0.00191362 -0.0669796 0
-0.00300786 -0.0674381 1.77636e-15
-0.00505576 -0.0611847 -8.88178e-15
-6.30607e-14 -0.0707385 -1.15463e-14
0.00505576 -0.0611847 -6.21725e-15
0.00300786 -0.0674381 5.32907e-15
0 0 0
0 0 0
0 0 0
0 0 0
0 0 0
0.00260856 -0.00544548 -0.000254385
0.0017088 -0.00487156 -0.000174443
5.32907e-15 -0.00383774 -0.000255969
-0.0017088 -0.00487156 -0.000174443
-0.00260856 -0.00544548 -0.000254385
      </DataArray> 
      <DataArray type="Float64" NumberOfComponents="3" Name="Velocity" format="ascii">
0 0 0
0 0 0
0 0 0
0 0 0
0 0 0
-7.75721e-05 0.00231178 -2.56453e-06
3.25499e-05 0.00186035 -8.11914e-06
-2.66906e-15 0.00105869 -1.79013e-05
-3.25499e-05 0.00186035 -8.11914e-06
7.75721e-05 0.00231178 -2.56453e-06
-0.000227601 0.000511851 0
-0.000136751 0.000319904 0
-2.66906e-15 0.000186727 0
0.000136751 0.000319904 0
0.000227601 0.000511851 0
0.00016184 3.1188e-05 -3.55875e-15
0.000170555 0.000393402 1.77938e-15
8.89688e-16 0.000779619 4.44844e-15
-0.000170555 0.000393402 -2.66906e-15
-0.00016184 3.1188e-05 -7.88861e-31
0 0 0
0 0 0
0 0 0
0 0 0
0 0 0
-7.75721e-05 0.00231178 2.56453e-06
3.25499e-05 0.00186035 8.11914e-06
-1.06763e-14 0.00105869 1.79013e-05
-3.25499e-05 0.00186035 8.11914e-06
7.75721e-05 0.00231178 2.56453e-06
      </DataArray> 
      <DataArray type="Float64" NumberOfComponents="3" Name="Acceleration" format="ascii">
0 0 0
0 0 0
0 0 0
0 0 0
0 0 0
-0.0001045 -0.000118355 -4.07683e-06
0.000117393 -0.000460511 8.67846e-06
-1.15463e-14 -0.00224294 9.81396e-06
-0.000117393 -0.000460511 8.67846e-06
0.0001045 -0.000118355 -4.07683e-06
0.000104563 -0.000400904 0
0.000138898 -0.000279627 0
2.39808e-14 -0.000348248 0
-0.000138898 -0.000279627 0
-0.000104563 -0.000400904 0
0.000147933 0.000692418 -8.88178e-15
7.18782e-05 0.000375664 -1.77636e-15
1.15463e-14 0.000555777 -4.44089e-15
-7.18782e-05 0.000375664 8.88178e-16
-0.000147933 0.000692418 -5.32907e-15
0 0 0
0 0 0
0 0 0
0 0 0
0 0 0
-0.0001045 -0.000118355 4.07683e-06
0.000117393 -0.000460511 -8.67846e-06
-1.59872e-14 -0.00224294 -9.81396e-06
-0.000117393 -0.000460511 -8.67846e-06
0.0001045 -0.000118355 4.07683e-06
      </DataArray> 
    </PointData>
    <CellData>
    </CellData>
  </Piece>
  </UnstructuredGrid>
</VTKFile>
