<?xml version="1.0"?>
<VTKFile type="UnstructuredGrid">
  <UnstructuredGrid>
  <Piece NumberOfPoints="30"  NumberOfCells="85">
    <Points>
      <DataArray type="Float64" NumberOfComponents="3" format="ascii">
0 0 0
4 0 0
8 0 0
12 0 0
16 0 0
16.0011 2.99349 0.000179941
12.0008 2.99365 0.000140741
8 2.99531 0.000145733
3.99915 2.99365 0.000140741
-0.00107178 2.99349 0.000179941
0.00160001 -0.0567316 8
4.00207 -0.0507243 8
8 -0.056025 8
11.9979 -0.0507243 8
15.9984 -0.0567316 8
15.9986 2.94338 8
11.9967 2.95044 8
8 2.94392 8
4.00334 2.95044 8
0.001382 2.94338 8
0 0 16
4 0 16
8 0 16
12 0 16
16 0 16
16.0011 2.99349 15.9998
12.0008 2.99365 15.9999
8 2.99531 15.9999
3.99915 2.99365 15.9999
-0.00107178 2.99349 15.9998
      </DataArray>
    </Points>
    <Cells>
      <DataArray type="Int32" Name="connectivity" format="ascii">
0 1
1 2
2 3
3 4
4 5
5 6
6 7
7 8
8 9
9 0
8 1
7 2
6 3
10 11
11 12
12 13
13 14
14 15
15 16
16 17
17 18
18 19
19 10
18 11
17 12
16 13
20 21
21 22
22 23
23 24
24 25
25 26
26 27
27 28
28 29
20 29
28 21
22 27
23 26
20 10
10 0
29 19
19 9
21 11
28 18
11 1
18 8
22 12
27 17
12 2
17 7
23 13
26 16
13 3
16 6
24 14
25 15
15 5
14 4
25 23
29 21
19 11
9 1
15 13
5 3
8 2
6 2
18 12
16 12
28 22
26 22
19 20
19 0
21 18
18 1
22 17
17 2
23 16
16 3
15 24
15 4
20 18
18 0
24 16
16 4
      </DataArray>
      <DataArray type="Int32" Name="offsets" format="ascii">
2
4
6
8
10
12
14
16
18
20
22
24
26
28
30
32
34
36
38
40
42
44
46
48
50
52
54
56
58
60
62
64
66
68
70
72
74
76
78
80
82
84
86
88
90
92
94
96
98
100
102
104
106
108
110
112
114
116
118
120
122
124
126
128
130
132
134
136
138
140
142
144
146
148
150
152
154
156
158
160
162
164
166
168
170
      </DataArray>
      <DataArray type="UInt8" Name="types" format="ascii">
4
4
4
4
4
4
4
4
4
4
4
4
4
4
4
4
4
4
4
4
4
4
4
4
4
4
4
4
4
4
4
4
4
4
4
4
4
4
4
4
4
4
4
4
4
4
4
4
4
4
4
4
4
4
4
4
4
4
4
4
4
4
4
4
4
4
4
4
4
4
4
4
4
4
4
4
4
4
4
4
4
4
4
4
4
      </DataArray>
    </Cells>
    <PointData>
      <DataArray type="Float64" NumberOfComponents="3" Name="Displacement" format="ascii">
0 0 0
0 0 0
0 0 0
0 0 0
0 0 0
0.00107178 -0.00651151 0.000179941
0.000846871 -0.0063525 0.000140741
8.88178e-15 -0.00469493 0.000145733
-0.000846871 -0.0063525 0.000140741
-0.00107178 -0.00651151 0.000179941
0.00160001 -0.0567316 0
0.00206512 -0.0507243 0
-2.66454e-15 -0.056025 0
-0.00206512 -0.0507243 0
-0.00160001 -0.0567316 0
-0.001382 -0.0566239 3.55271e-15
-0.00334068 -0.0495596 -1.15463e-14
1.77636e-15 -0.0560794 -1.77636e-14
0.00334068 -0.0495596 8.88178e-15
0.001382 -0.0566239 1.59872e-14
0 0 0
0 0 0
0 0 0
0 0 0
0 0 0
0.00107178 -0.00651151 -0.000179941
0.000846871 -0.0063525 -0.000140741
7.10543e-15 -0.00469493 -0.000145733
-0.000846871 -0.0063525 -0.000140741
-0.00107178 -0.00651151 -0.000179941
      </DataArray> 
      <DataArray type="Float64" NumberOfComponents="3" Name="Velocity" format="ascii">
0 0 0
0 0 0
0 0 0
0 0 0
0 0 0
0.000328798 -0.000700136 -1.56074e-06
0.000100597 -0.000137931 -1.17624e-05
-7.1175e-15 0.00152695 -1.01314e-05
-0.000100597 -0.000137931 -1.17624e-05
-0.000328798 -0.000700136 -1.56074e-06
-5.00249e-05 0.00124032 0
0.0001144 0.00103546 0
1.33453e-14 0.00114604 0
-0.0001144 0.00103546 0
5.00249e-05 0.00124032 0
-3.14625e-05 0.000401811 -1.4235e-14
7.12633e-05 0.000664775 8.89688e-16
5.33813e-15 0.000885534 -3.55875e-15
-7.12633e-05 0.000664775 8.89688e-15
3.14625e-05 0.000401811 -5.33813e-15
0 0 0
0 0 0
0 0 0
0 0 0
0 0 0
0.000328798 -0.000700136 1.56074e-06
0.000100597 -0.000137931 1.17624e-05
-1.24556e-14 0.00152695 1.01314e-05
-0.000100597 -0.000137931 1.17624e-05
-0.000328798 -0.000700136 1.56074e-06
      </DataArray> 
      <DataArray type="Float64" NumberOfComponents="3" Name="Acceleration" format="ascii">
0 0 0
0 0 0
0 0 0
0 0 0
0 0 0
0.00129305 0.00163728 -8.01183e-06
0.000863822 0.00125487 -6.78817e-06
-1.77636e-15 -0.00134805 7.93389e-06
-0.000863822 0.00125487 -6.78817e-06
-0.00129305 0.00163728 -8.01183e-06
0.0003067 8.51714e-05 0
-0.00028937 5.03353e-05 0
-1.33227e-14 0.000432461 0
0.00028937 5.03353e-05 0
-0.0003067 8.51714e-05 0
-1.8254e-05 -0.000100363 2.39814e-28
-0.000132475 -0.000164845 2.66454e-15
-1.77636e-15 -0.000545126 3.55271e-15
0.000132475 -0.000164845 -1.77636e-15
1.8254e-05 -0.000100363 -5.32907e-15
0 0 0
0 0 0
0 0 0
0 0 0
0 0 0
0.00129305 0.00163728 8.01183e-06
0.000863822 0.00125487 6.78817e-06
-3.55271e-15 -0.00134805 -7.93389e-06
-0.000863822 0.00125487 6.78817e-06
-0.00129305 0.00163728 8.01183e-06
      </DataArray> 
    </PointData>
    <CellData>
    </CellData>
  </Piece>
  </UnstructuredGrid>
</VTKFile>
