<?xml version="1.0"?>
<VTKFile type="UnstructuredGrid">
  <UnstructuredGrid>
  <Piece NumberOfPoints="30"  NumberOfCells="85">
    <Points>
      <DataArray type="Float64" NumberOfComponents="3" format="ascii">
0 0 0
4 0 0
8 0 0
12 0 0
16 0 0
16.0023 2.99372 0.00017198
12.0015 2.9947 0.000139483
8 2.99402 0.000187313
3.99854 2.9947 0.000139483
-0.00225553 2.99372 0.00017198
0.00199257 -0.0577706 8
4.00176 -0.0530593 8
8 -0.0596566 8
11.9982 -0.0530593 8
15.998 -0.0577706 8
15.9978 2.94246 8
11.9959 2.94797 8
8 2.93986 8
4.00407 2.94797 8
0.00223608 2.94246 8
0 0 16
4 0 16
8 0 16
12 0 16
16 0 16
16.0023 2.99372 15.9998
12.0015 2.9947 15.9999
8 2.99402 15.9998
3.99854 2.9947 15.9999
-0.00225553 2.99372 15.9998
      </DataArray>
    </Points>
    <Cells>
      <DataArray type="Int32" Name="connectivity" format="ascii">
0 1
1 2
2 3
3 4
4 5
5 6
6 7
7 8
8 9
9 0
8 1
7 2
6 3
10 11
11 12
12 13
13 14
14 15
15 16
16 17
17 18
18 19
19 10
18 11
17 12
16 13
20 21
21 22
22 23
23 24
24 25
25 26
26 27
27 28
28 29
20 29
28 21
22 27
23 26
20 10
10 0
29 19
19 9
21 11
28 18
11 1
18 8
22 12
27 17
12 2
17 7
23 13
26 16
13 3
16 6
24 14
25 15
15 5
14 4
25 23
29 21
19 11
9 1
15 13
5 3
8 2
6 2
18 12
16 12
28 22
26 22
19 20
19 0
21 18
18 1
22 17
17 2
23 16
16 3
15 24
15 4
20 18
18 0
24 16
16 4
      </DataArray>
      <DataArray type="Int32" Name="offsets" format="ascii">
2
4
6
8
10
12
14
16
18
20
22
24
26
28
30
32
34
36
38
40
42
44
46
48
50
52
54
56
58
60
62
64
66
68
70
72
74
76
78
80
82
84
86
88
90
92
94
96
98
100
102
104
106
108
110
112
114
116
118
120
122
124
126
128
130
132
134
136
138
140
142
144
146
148
150
152
154
156
158
160
162
164
166
168
170
      </DataArray>
      <DataArray type="UInt8" Name="types" format="ascii">
4
4
4
4
4
4
4
4
4
4
4
4
4
4
4
4
4
4
4
4
4
4
4
4
4
4
4
4
4
4
4
4
4
4
4
4
4
4
4
4
4
4
4
4
4
4
4
4
4
4
4
4
4
4
4
4
4
4
4
4
4
4
4
4
4
4
4
4
4
4
4
4
4
4
4
4
4
4
4
4
4
4
4
4
4
      </DataArray>
    </Cells>
    <PointData>
      <DataArray type="Float64" NumberOfComponents="3" Name="Displacement" format="ascii">
0 0 0
0 0 0
0 0 0
0 0 0
0 0 0
0.00225553 -0.00628185 0.00017198
0.00145573 -0.00530042 0.000139483
2.66454e-14 -0.00597707 0.000187313
-0.00145573 -0.00530042 0.000139483
-0.00225553 -0.00628185 0.00017198
0.00199257 -0.0577706 0
0.00175992 -0.0530593 0
-2.13163e-14 -0.0596566 0
-0.00175992 -0.0530593 0
-0.00199257 -0.0577706 0
-0.00223608 -0.0575391 3.19744e-14
-0.00406586 -0.0520256 1.24345e-14
2.30926e-14 -0.0601351 0
0.00406586 -0.0520256 1.24345e-14
0.00223608 -0.0575391 1.77636e-14
0 0 0
0 0 0
0 0 0
0 0 0
0 0 0
0.00225553 -0.00628185 -0.00017198
0.00145573 -0.00530042 -0.000139483
-5.32907e-15 -0.00597707 -0.000187313
-0.00145573 -0.00530042 -0.000139483
-0.00225553 -0.00628185 -0.00017198
      </DataArray> 
      <DataArray type="Float64" NumberOfComponents="3" Name="Velocity" format="ascii">
0 0 0
0 0 0
0 0 0
0 0 0
0 0 0
-4.99267e-05 6.18749e-05 -2.72088e-06
-7.17428e-05 0.000352177 1.35466e-06
1.06763e-14 -0.000830331 2.96007e-06
7.17428e-05 0.000352177 1.35466e-06
4.99267e-05 6.18749e-05 -2.72088e-06
-3.67421e-05 -6.78528e-05 0
0.000122161 0.000116607 0
8.89688e-15 0.0001367 0
-0.000122161 0.000116607 0
3.67421e-05 -6.78528e-05 0
5.33807e-05 0.000126768 5.33813e-15
2.70541e-05 7.30954e-05 3.55875e-15
7.1175e-15 0.000193233 3.55875e-15
-2.70541e-05 7.30954e-05 -1.77938e-15
-5.33807e-05 0.000126768 1.4235e-14
0 0 0
0 0 0
0 0 0
0 0 0
0 0 0
-4.99267e-05 6.18749e-05 2.72088e-06
-7.17428e-05 0.000352177 -1.35466e-06
1.77938e-15 -0.000830331 -2.96007e-06
7.17428e-05 0.000352177 -1.35466e-06
4.99267e-05 6.18749e-05 2.72088e-06
      </DataArray> 
      <DataArray type="Float64" NumberOfComponents="3" Name="Acceleration" format="ascii">
0 0 0
0 0 0
0 0 0
0 0 0
0 0 0
0.000346436 0.00101277 -2.02434e-06
0.000397803 4.43371e-05 -1.13919e-07
-2.66454e-14 1.42302e-05 -1.2347e-06
-0.000397803 4.43371e-05 -1.13919e-07
-0.000346436 0.00101277 -2.02434e-06
-0.000149629 0.00020271 0
0.000205304 -4.09352e-05 0
3.55271e-15 0.000258938 0
-0.000205304 -4.09352e-05 0
0.000149629 0.00020271 0
4.04221e-05 -0.000107703 -7.10543e-15
-5.65691e-05 -4.77534e-05 -5.32907e-15
-1.95399e-14 -0.000199102 -2.05104e-28
5.65691e-05 -4.77534e-05 -5.32907e-15
-4.04221e-05 -0.000107703 -3.55271e-15
0 0 0
0 0 0
0 0 0
0 0 0
0 0 0
0.000346436 0.00101277 2.02434e-06
0.000397803 4.43371e-05 1.13919e-07
-1.24345e-14 1.42302e-05 1.2347e-06
-0.000397803 4.43371e-05 1.13919e-07
-0.000346436 0.00101277 2.02434e-06
      </DataArray> 
    </PointData>
    <CellData>
    </CellData>
  </Piece>
  </UnstructuredGrid>
</VTKFile>
