<?xml version="1.0"?>
<VTKFile type="UnstructuredGrid">
  <UnstructuredGrid>
  <Piece NumberOfPoints="30"  NumberOfCells="85">
    <Points>
      <DataArray type="Float64" NumberOfComponents="3" format="ascii">
0 0 0
4 0 0
8 0 0
12 0 0
16 0 0
16.0028 2.99486 0.000173329
12.002 2.99475 0.000140121
8 2.99405 0.000190323
3.998 2.99475 0.000140121
-0.00276743 2.99486 0.000173329
0.00192267 -0.0581398 8
4.00187 -0.0537166 8
8 -0.0602674 8
11.9981 -0.0537166 8
15.9981 -0.0581398 8
15.9977 2.94202 8
11.9958 2.94733 8
8 2.93914 8
4.00416 2.94733 8
0.00233363 2.94202 8
0 0 16
4 0 16
8 0 16
12 0 16
16 0 16
16.0028 2.99486 15.9998
12.002 2.99475 15.9999
8 2.99405 15.9998
3.998 2.99475 15.9999
-0.00276743 2.99486 15.9998
      </DataArray>
    </Points>
    <Cells>
      <DataArray type="Int32" Name="connectivity" format="ascii">
0 1
1 2
2 3
3 4
4 5
5 6
6 7
7 8
8 9
9 0
8 1
7 2
6 3
10 11
11 12
12 13
13 14
14 15
15 16
16 17
17 18
18 19
19 10
18 11
17 12
16 13
20 21
21 22
22 23
23 24
24 25
25 26
26 27
27 28
28 29
20 29
28 21
22 27
23 26
20 10
10 0
29 19
19 9
21 11
28 18
11 1
18 8
22 12
27 17
12 2
17 7
23 13
26 16
13 3
16 6
24 14
25 15
15 5
14 4
25 23
29 21
19 11
9 1
15 13
5 3
8 2
6 2
18 12
16 12
28 22
26 22
19 20
19 0
21 18
18 1
22 17
17 2
23 16
16 3
15 24
15 4
20 18
18 0
24 16
16 4
      </DataArray>
      <DataArray type="Int32" Name="offsets" format="ascii">
2
4
6
8
10
12
14
16
18
20
22
24
26
28
30
32
34
36
38
40
42
44
46
48
50
52
54
56
58
60
62
64
66
68
70
72
74
76
78
80
82
84
86
88
90
92
94
96
98
100
102
104
106
108
110
112
114
116
118
120
122
124
126
128
130
132
134
136
138
140
142
144
146
148
150
152
154
156
158
160
162
164
166
168
170
      </DataArray>
      <DataArray type="UInt8" Name="types" format="ascii">
4
4
4
4
4
4
4
4
4
4
4
4
4
4
4
4
4
4
4
4
4
4
4
4
4
4
4
4
4
4
4
4
4
4
4
4
4
4
4
4
4
4
4
4
4
4
4
4
4
4
4
4
4
4
4
4
4
4
4
4
4
4
4
4
4
4
4
4
4
4
4
4
4
4
4
4
4
4
4
4
4
4
4
4
4
      </DataArray>
    </Cells>
    <PointData>
      <DataArray type="Float64" NumberOfComponents="3" Name="Displacement" format="ascii">
0 0 0
0 0 0
0 0 0
0 0 0
0 0 0
0.00276743 -0.00514179 0.000173329
0.00199725 -0.00524689 0.000140121
-8.88178e-15 -0.00595291 0.000190323
-0.00199725 -0.00524689 0.000140121
-0.00276743 -0.00514179 0.000173329
0.00192267 -0.0581398 0
0.00187452 -0.0537166 0
4.08562e-14 -0.0602674 0
-0.00187452 -0.0537166 0
-0.00192267 -0.0581398 0
-0.00233363 -0.0579793 0
-0.00415983 -0.052666 8.88178e-15
4.61853e-14 -0.0608639 5.32907e-15
0.00415983 -0.052666 -1.5099e-14
0.00233363 -0.0579793 -9.76996e-15
0 0 0
0 0 0
0 0 0
0 0 0
0 0 0
0.00276743 -0.00514179 -0.000173329
0.00199725 -0.00524689 -0.000140121
2.30926e-14 -0.00595291 -0.000190323
-0.00199725 -0.00524689 -0.000140121
-0.00276743 -0.00514179 -0.000173329
      </DataArray> 
      <DataArray type="Float64" NumberOfComponents="3" Name="Velocity" format="ascii">
0 0 0
0 0 0
0 0 0
0 0 0
0 0 0
8.77621e-05 -0.000457881 2.08728e-06
-5.46549e-05 6.01767e-05 6.61473e-07
1.95731e-14 0.000507794 -5.20341e-07
5.46549e-05 6.01767e-05 6.61473e-07
-8.77621e-05 -0.000457881 2.08728e-06
-1.79776e-05 -0.000143025 0
5.7438e-05 -0.000118443 0
1.06763e-14 -0.000123657 0
-5.7438e-05 -0.000118443 0
1.79776e-05 -0.000143025 0
1.66243e-05 5.19949e-05 -5.33813e-15
-7.43237e-07 -2.08399e-05 3.55875e-15
8.89688e-15 -5.71362e-05 5.33813e-15
7.43237e-07 -2.08399e-05 -1.33453e-14
-1.66243e-05 5.19949e-05 -4.44844e-15
0 0 0
0 0 0
0 0 0
0 0 0
0 0 0
8.77621e-05 -0.000457881 -2.08728e-06
-5.46549e-05 6.01767e-05 -6.61473e-07
1.06763e-14 0.000507794 5.20341e-07
5.46549e-05 6.01767e-05 -6.61473e-07
-8.77621e-05 -0.000457881 -2.08728e-06
      </DataArray> 
      <DataArray type="Float64" NumberOfComponents="3" Name="Acceleration" format="ascii">
0 0 0
0 0 0
0 0 0
0 0 0
0 0 0
-0.000156968 -0.000509592 1.33839e-06
-0.000145233 -0.000137283 1.1107e-06
-1.24345e-14 -2.15887e-05 -3.76281e-07
0.000145233 -0.000137283 1.1107e-06
0.000156968 -0.000509592 1.33839e-06
-2.96791e-05 0.000141646 0
2.27286e-05 3.67997e-06 0
5.32907e-15 0.000160879 0
-2.27286e-05 3.67997e-06 0
2.96791e-05 0.000141646 0
1.13343e-05 -8.25155e-05 3.55271e-15
-3.62584e-05 -1.7334e-05 -1.77636e-15
7.10543e-15 -0.000116866 1.77636e-15
3.62584e-05 -1.7334e-05 1.33227e-14
-1.13343e-05 -8.25155e-05 -2.66454e-15
0 0 0
0 0 0
0 0 0
0 0 0
0 0 0
-0.000156968 -0.000509592 -1.33839e-06
-0.000145233 -0.000137283 -1.1107e-06
-8.88178e-15 -2.15887e-05 3.76281e-07
0.000145233 -0.000137283 -1.1107e-06
0.000156968 -0.000509592 -1.33839e-06
      </DataArray> 
    </PointData>
    <CellData>
    </CellData>
  </Piece>
  </UnstructuredGrid>
</VTKFile>
