<?xml version="1.0"?>
<VTKFile type="UnstructuredGrid">
  <UnstructuredGrid>
  <Piece NumberOfPoints="30"  NumberOfCells="85">
    <Points>
      <DataArray type="Float64" NumberOfComponents="3" format="ascii">
0 0 0
4 0 0
8 0 0
12 0 0
16 0 0
16.0039 2.99536 0.00021654
12.0031 2.99362 0.000166805
8 2.99208 0.000222201
3.99688 2.99362 0.000166805
-0.00385611 2.99536 0.00021654
0.00229693 -0.0616437 8
4.00175 -0.0568186 8
8 -0.0634955 8
11.9982 -0.0568186 8
15.9977 -0.0616437 8
15.9973 2.93846 8
11.9956 2.94465 8
8 2.93675 8
4.00441 2.94465 8
0.00274369 2.93846 8
0 0 16
4 0 16
8 0 16
12 0 16
16 0 16
16.0039 2.99536 15.9998
12.0031 2.99362 15.9998
8 2.99208 15.9998
3.99688 2.99362 15.9998
-0.00385611 2.99536 15.9998
      </DataArray>
    </Points>
    <Cells>
      <DataArray type="Int32" Name="connectivity" format="ascii">
0 1
1 2
2 3
3 4
4 5
5 6
6 7
7 8
8 9
9 0
8 1
7 2
6 3
10 11
11 12
12 13
13 14
14 15
15 16
16 17
17 18
18 19
19 10
18 11
17 12
16 13
20 21
21 22
22 23
23 24
24 25
25 26
26 27
27 28
28 29
20 29
28 21
22 27
23 26
20 10
10 0
29 19
19 9
21 11
28 18
11 1
18 8
22 12
27 17
12 2
17 7
23 13
26 16
13 3
16 6
24 14
25 15
15 5
14 4
25 23
29 21
19 11
9 1
15 13
5 3
8 2
6 2
18 12
16 12
28 22
26 22
19 20
19 0
21 18
18 1
22 17
17 2
23 16
16 3
15 24
15 4
20 18
18 0
24 16
16 4
      </DataArray>
      <DataArray type="Int32" Name="offsets" format="ascii">
2
4
6
8
10
12
14
16
18
20
22
24
26
28
30
32
34
36
38
40
42
44
46
48
50
52
54
56
58
60
62
64
66
68
70
72
74
76
78
80
82
84
86
88
90
92
94
96
98
100
102
104
106
108
110
112
114
116
118
120
122
124
126
128
130
132
134
136
138
140
142
144
146
148
150
152
154
156
158
160
162
164
166
168
170
      </DataArray>
      <DataArray type="UInt8" Name="types" format="ascii">
4
4
4
4
4
4
4
4
4
4
4
4
4
4
4
4
4
4
4
4
4
4
4
4
4
4
4
4
4
4
4
4
4
4
4
4
4
4
4
4
4
4
4
4
4
4
4
4
4
4
4
4
4
4
4
4
4
4
4
4
4
4
4
4
4
4
4
4
4
4
4
4
4
4
4
4
4
4
4
4
4
4
4
4
4
      </DataArray>
    </Cells>
    <PointData>
      <DataArray type="Float64" NumberOfComponents="3" Name="Displacement" format="ascii">
0 0 0
0 0 0
0 0 0
0 0 0
0 0 0
0.00385611 -0.00463878 0.00021654
0.00312302 -0.0063805 0.000166805
-3.55271e-15 -0.00792204 0.000222201
-0.00312302 -0.0063805 0.000166805
-0.00385611 -0.00463878 0.00021654
0.00229693 -0.0616437 0
0.00175482 -0.0568186 0
1.42109e-14 -0.0634955 0
-0.00175482 -0.0568186 0
-0.00229693 -0.0616437 0
-0.00274369 -0.0615381 1.24345e-14
-0.00441011 -0.0553451 -8.88178e-15
8.88178e-15 -0.0632522 -1.15463e-14
0.00441011 -0.0553451 1.77636e-15
0.00274369 -0.0615381 1.77636e-14
0 0 0
0 0 0
0 0 0
0 0 0
0 0 0
0.00385611 -0.00463878 -0.00021654
0.00312302 -0.0063805 -0.000166805
1.24345e-14 -0.00792204 -0.000222201
-0.00312302 -0.0063805 -0.000166805
-0.00385611 -0.00463878 -0.00021654
      </DataArray> 
      <DataArray type="Float64" NumberOfComponents="3" Name="Velocity" format="ascii">
0 0 0
0 0 0
0 0 0
0 0 0
0 0 0
0.000215506 -0.00252016 1.26351e-05
-0.00040628 -0.000313287 6.73439e-06
-1.24556e-14 0.00167995 -2.98918e-05
0.00040628 -0.000313287 6.73439e-06
-0.000215506 -0.00252016 1.26351e-05
3.21619e-05 0.000285462 0
-0.000122602 0.00176238 0
-1.24556e-14 0.00248646 0
0.000122602 0.00176238 0
-3.21619e-05 0.000285462 0
0.000390364 0.00130692 -3.55875e-15
0.000250723 0.00135563 -1.77938e-15
-8.89688e-15 0.00206969 1.69041e-14
-0.000250723 0.00135563 -1.77938e-15
-0.000390364 0.00130692 3.55875e-15
0 0 0
0 0 0
0 0 0
0 0 0
0 0 0
0.000215506 -0.00252016 -1.26351e-05
-0.00040628 -0.000313287 -6.73439e-06
-3.55875e-15 0.00167995 2.98918e-05
0.00040628 -0.000313287 -6.73439e-06
-0.000215506 -0.00252016 -1.26351e-05
      </DataArray> 
      <DataArray type="Float64" NumberOfComponents="3" Name="Acceleration" format="ascii">
0 0 0
0 0 0
0 0 0
0 0 0
0 0 0
-0.000692687 -0.00141661 -4.08229e-06
-0.00095669 0.000737044 -3.89479e-06
7.10543e-15 0.00202886 -1.13932e-05
0.00095669 0.000737044 -3.89479e-06
0.000692687 -0.00141661 -4.08229e-06
-0.000351865 9.03398e-05 0
0.000520922 9.7321e-05 0
-3.55271e-15 0.000645011 0
-0.000520922 9.7321e-05 0
0.000351865 9.03398e-05 0
0.00020908 0.000171473 -8.88178e-15
-9.46523e-05 -6.0494e-05 -1.77636e-15
-8.88178e-15 -0.000426922 -8.88178e-16
9.46523e-05 -6.0494e-05 1.77636e-15
-0.00020908 0.000171473 -7.10543e-15
0 0 0
0 0 0
0 0 0
0 0 0
0 0 0
-0.000692687 -0.00141661 4.08229e-06
-0.00095669 0.000737044 3.89479e-06
8.88178e-15 0.00202886 1.13932e-05
0.00095669 0.000737044 3.89479e-06
0.000692687 -0.00141661 4.08229e-06
      </DataArray> 
    </PointData>
    <CellData>
    </CellData>
  </Piece>
  </UnstructuredGrid>
</VTKFile>
