<?xml version="1.0"?>
<VTKFile type="UnstructuredGrid">
  <UnstructuredGrid>
  <Piece NumberOfPoints="30"  NumberOfCells="85">
    <Points>
      <DataArray type="Float64" NumberOfComponents="3" format="ascii">
0 0 0
4 0 0
8 0 0
12 0 0
16 0 0
16.0024 2.99616 0.000197207
12.0021 2.99455 0.000151368
8 2.99479 0.000216586
3.99793 2.99455 0.000151368
-0.00243872 2.99616 0.000197207
0.00209073 -0.0621102 8
4.00209 -0.0570472 8
8 -0.0640127 8
11.9979 -0.0570472 8
15.9979 -0.0621102 8
15.9974 2.93863 8
11.9955 2.94409 8
8 2.93552 8
4.00454 2.94409 8
0.002598 2.93863 8
0 0 16
4 0 16
8 0 16
12 0 16
16 0 16
16.0024 2.99616 15.9998
12.0021 2.99455 15.9998
8 2.99479 15.9998
3.99793 2.99455 15.9998
-0.00243872 2.99616 15.9998
      </DataArray>
    </Points>
    <Cells>
      <DataArray type="Int32" Name="connectivity" format="ascii">
0 1
1 2
2 3
3 4
4 5
5 6
6 7
7 8
8 9
9 0
8 1
7 2
6 3
10 11
11 12
12 13
13 14
14 15
15 16
16 17
17 18
18 19
19 10
18 11
17 12
16 13
20 21
21 22
22 23
23 24
24 25
25 26
26 27
27 28
28 29
20 29
28 21
22 27
23 26
20 10
10 0
29 19
19 9
21 11
28 18
11 1
18 8
22 12
27 17
12 2
17 7
23 13
26 16
13 3
16 6
24 14
25 15
15 5
14 4
25 23
29 21
19 11
9 1
15 13
5 3
8 2
6 2
18 12
16 12
28 22
26 22
19 20
19 0
21 18
18 1
22 17
17 2
23 16
16 3
15 24
15 4
20 18
18 0
24 16
16 4
      </DataArray>
      <DataArray type="Int32" Name="offsets" format="ascii">
2
4
6
8
10
12
14
16
18
20
22
24
26
28
30
32
34
36
38
40
42
44
46
48
50
52
54
56
58
60
62
64
66
68
70
72
74
76
78
80
82
84
86
88
90
92
94
96
98
100
102
104
106
108
110
112
114
116
118
120
122
124
126
128
130
132
134
136
138
140
142
144
146
148
150
152
154
156
158
160
162
164
166
168
170
      </DataArray>
      <DataArray type="UInt8" Name="types" format="ascii">
4
4
4
4
4
4
4
4
4
4
4
4
4
4
4
4
4
4
4
4
4
4
4
4
4
4
4
4
4
4
4
4
4
4
4
4
4
4
4
4
4
4
4
4
4
4
4
4
4
4
4
4
4
4
4
4
4
4
4
4
4
4
4
4
4
4
4
4
4
4
4
4
4
4
4
4
4
4
4
4
4
4
4
4
4
      </DataArray>
    </Cells>
    <PointData>
      <DataArray type="Float64" NumberOfComponents="3" Name="Displacement" format="ascii">
0 0 0
0 0 0
0 0 0
0 0 0
0 0 0
0.00243872 -0.00383648 0.000197207
0.00207431 -0.00545259 0.000151368
-1.68754e-14 -0.00520911 0.000216586
-0.00207431 -0.00545259 0.000151368
-0.00243872 -0.00383648 0.000197207
0.00209073 -0.0621102 0
0.00208769 -0.0570472 0
3.01981e-14 -0.0640127 0
-0.00208769 -0.0570472 0
-0.00209073 -0.0621102 0
-0.002598 -0.0613715 1.06581e-14
-0.00454476 -0.0559057 -9.76996e-15
1.95399e-14 -0.0644765 8.88178e-15
0.00454476 -0.0559057 1.06581e-14
0.002598 -0.0613715 1.59872e-14
0 0 0
0 0 0
0 0 0
0 0 0
0 0 0
0.00243872 -0.00383648 -0.000197207
0.00207431 -0.00545259 -0.000151368
-6.21725e-15 -0.00520911 -0.000216586
-0.00207431 -0.00545259 -0.000151368
-0.00243872 -0.00383648 -0.000197207
      </DataArray> 
      <DataArray type="Float64" NumberOfComponents="3" Name="Velocity" format="ascii">
0 0 0
0 0 0
0 0 0
0 0 0
0 0 0
0.000395478 -6.81439e-05 -6.32871e-06
0.000310622 -0.000234199 -2.90839e-06
-8.89688e-16 -0.00127872 1.00976e-06
-0.000310622 -0.000234199 -2.90839e-06
-0.000395478 -6.81439e-05 -6.32871e-06
9.973e-05 0.000248559 0
-0.000167625 0.000310981 0
-7.1175e-15 0.000651988 0
0.000167625 0.000310981 0
-9.973e-05 0.000248559 0
6.84599e-05 0.000122236 -3.55875e-15
1.50699e-05 8.2672e-05 8.89688e-16
3.55875e-15 -4.967e-05 8.89688e-15
-1.50699e-05 8.2672e-05 7.1175e-15
-6.84599e-05 0.000122236 -3.55875e-15
0 0 0
0 0 0
0 0 0
0 0 0
0 0 0
0.000395478 -6.81439e-05 6.32871e-06
0.000310622 -0.000234199 2.90839e-06
-6.22781e-15 -0.00127872 -1.00976e-06
-0.000310622 -0.000234199 2.90839e-06
-0.000395478 -6.81439e-05 6.32871e-06
      </DataArray> 
      <DataArray type="Float64" NumberOfComponents="3" Name="Acceleration" format="ascii">
0 0 0
0 0 0
0 0 0
0 0 0
0 0 0
-0.000106094 -0.00199842 4.53534e-06
-0.000424995 5.42893e-05 3.57127e-06
-2.66454e-15 -0.000786652 1.50082e-06
0.000424995 5.42893e-05 3.57127e-06
0.000106094 -0.00199842 4.53534e-06
-6.1766e-07 0.000641826 0
-7.30099e-05 4.01053e-05 0
-2.30926e-14 0.000224741 0
7.30099e-05 4.01053e-05 0
6.1766e-07 0.000641826 0
-1.30093e-05 -0.000204625 1.82227e-28
7.57556e-06 8.22653e-05 8.88178e-16
1.77636e-15 -4.47887e-05 1.77636e-15
-7.57556e-06 8.22653e-05 -3.55271e-15
1.30093e-05 -0.000204625 -5.32907e-15
0 0 0
0 0 0
0 0 0
0 0 0
0 0 0
-0.000106094 -0.00199842 -4.53534e-06
-0.000424995 5.42893e-05 -3.57127e-06
-9.76996e-15 -0.000786652 -1.50082e-06
0.000424995 5.42893e-05 -3.57127e-06
0.000106094 -0.00199842 -4.53534e-06
      </DataArray> 
    </PointData>
    <CellData>
    </CellData>
  </Piece>
  </UnstructuredGrid>
</VTKFile>
