<?xml version="1.0"?>
<VTKFile type="UnstructuredGrid">
  <UnstructuredGrid>
  <Piece NumberOfPoints="30"  NumberOfCells="85">
    <Points>
      <DataArray type="Float64" NumberOfComponents="3" format="ascii">
0 0 0
4 0 0
8 0 0
12 0 0
16 0 0
16.003 2.9946 0.000176402
12.0021 2.99491 0.000148284
8 2.99412 0.000191994
3.99791 2.99491 0.000148284
-0.00300517 2.9946 0.000176402
0.00193602 -0.058229 8
4.00184 -0.0539674 8
8 -0.0605092 8
11.9982 -0.0539674 8
15.9981 -0.058229 8
15.9976 2.9418 8
11.9957 2.94704 8
8 2.93859 8
4.00429 2.94704 8
0.00244263 2.9418 8
0 0 16
4 0 16
8 0 16
12 0 16
16 0 16
16.003 2.9946 15.9998
12.0021 2.99491 15.9999
8 2.99412 15.9998
3.99791 2.99491 15.9999
-0.00300517 2.9946 15.9998
      </DataArray>
    </Points>
    <Cells>
      <DataArray type="Int32" Name="connectivity" format="ascii">
0 1
1 2
2 3
3 4
4 5
5 6
6 7
7 8
8 9
9 0
8 1
7 2
6 3
10 11
11 12
12 13
13 14
14 15
15 16
16 17
17 18
18 19
19 10
18 11
17 12
16 13
20 21
21 22
22 23
23 24
24 25
25 26
26 27
27 28
28 29
20 29
28 21
22 27
23 26
20 10
10 0
29 19
19 9
21 11
28 18
11 1
18 8
22 12
27 17
12 2
17 7
23 13
26 16
13 3
16 6
24 14
25 15
15 5
14 4
25 23
29 21
19 11
9 1
15 13
5 3
8 2
6 2
18 12
16 12
28 22
26 22
19 20
19 0
21 18
18 1
22 17
17 2
23 16
16 3
15 24
15 4
20 18
18 0
24 16
16 4
      </DataArray>
      <DataArray type="Int32" Name="offsets" format="ascii">
2
4
6
8
10
12
14
16
18
20
22
24
26
28
30
32
34
36
38
40
42
44
46
48
50
52
54
56
58
60
62
64
66
68
70
72
74
76
78
80
82
84
86
88
90
92
94
96
98
100
102
104
106
108
110
112
114
116
118
120
122
124
126
128
130
132
134
136
138
140
142
144
146
148
150
152
154
156
158
160
162
164
166
168
170
      </DataArray>
      <DataArray type="UInt8" Name="types" format="ascii">
4
4
4
4
4
4
4
4
4
4
4
4
4
4
4
4
4
4
4
4
4
4
4
4
4
4
4
4
4
4
4
4
4
4
4
4
4
4
4
4
4
4
4
4
4
4
4
4
4
4
4
4
4
4
4
4
4
4
4
4
4
4
4
4
4
4
4
4
4
4
4
4
4
4
4
4
4
4
4
4
4
4
4
4
4
      </DataArray>
    </Cells>
    <PointData>
      <DataArray type="Float64" NumberOfComponents="3" Name="Displacement" format="ascii">
0 0 0
0 0 0
0 0 0
0 0 0
0 0 0
0.00300517 -0.00539598 0.000176402
0.00209377 -0.00508585 0.000148284
-1.42109e-14 -0.00587588 0.000191994
-0.00209377 -0.00508585 0.000148284
-0.00300517 -0.00539598 0.000176402
0.00193602 -0.058229 0
0.00183805 -0.0539674 0
-8.88178e-15 -0.0605092 0
-0.00183805 -0.0539674 0
-0.00193602 -0.058229 0
-0.00244263 -0.0581991 2.84217e-14
-0.00428645 -0.0529575 -3.55271e-15
-1.5099e-14 -0.0614077 -3.55271e-15
0.00428645 -0.0529575 -3.55271e-15
0.00244263 -0.0581991 2.66454e-14
0 0 0
0 0 0
0 0 0
0 0 0
0 0 0
0.00300517 -0.00539598 -0.000176402
0.00209377 -0.00508585 -0.000148284
1.24345e-14 -0.00587588 -0.000191994
-0.00209377 -0.00508585 -0.000148284
-0.00300517 -0.00539598 -0.000176402
      </DataArray> 
      <DataArray type="Float64" NumberOfComponents="3" Name="Velocity" format="ascii">
0 0 0
0 0 0
0 0 0
0 0 0
0 0 0
-0.000219252 -0.000526013 1.05215e-06
-0.00024811 -0.000224553 1.28218e-06
7.1175e-15 0.000629142 -2.60908e-06
0.00024811 -0.000224553 1.28218e-06
0.000219252 -0.000526013 1.05215e-06
1.89192e-05 -0.000256887 0
3.05153e-05 -0.000149428 0
5.33813e-15 5.64301e-05 0
-3.05153e-05 -0.000149428 0
-1.89192e-05 -0.000256887 0
4.09556e-05 7.0508e-05 -3.55875e-15
-6.07452e-05 -9.60453e-05 -3.55875e-15
-1.86834e-14 -0.000262705 1.77938e-15
6.07452e-05 -9.60453e-05 -5.33813e-15
-4.09556e-05 7.0508e-05 -8.89688e-15
0 0 0
0 0 0
0 0 0
0 0 0
0 0 0
-0.000219252 -0.000526013 -1.05215e-06
-0.00024811 -0.000224553 -1.28218e-06
3.55875e-15 0.000629142 2.60908e-06
0.00024811 -0.000224553 -1.28218e-06
0.000219252 -0.000526013 -1.05215e-06
      </DataArray> 
      <DataArray type="Float64" NumberOfComponents="3" Name="Acceleration" format="ascii">
0 0 0
0 0 0
0 0 0
0 0 0
0 0 0
-0.000278116 -0.000270069 2.14642e-07
-0.000185241 -0.000320656 -5.45809e-07
1.06581e-14 -0.000103073 6.73847e-07
0.000185241 -0.000320656 -5.45809e-07
0.000278116 -0.000270069 2.14642e-07
-6.25918e-05 2.89671e-05 0
9.27481e-05 -4.33688e-05 0
-1.24345e-14 -5.47479e-05 0
-9.27481e-05 -4.33688e-05 0
6.25918e-05 2.89671e-05 0
2.59942e-05 -1.19925e-06 -7.10543e-15
1.12779e-05 1.83605e-05 8.12527e-29
-4.44089e-15 4.13678e-05 1.64477e-28
-1.12779e-05 1.83605e-05 -8.8668e-28
-2.59942e-05 -1.19925e-06 -5.32907e-15
0 0 0
0 0 0
0 0 0
0 0 0
0 0 0
-0.000278116 -0.000270069 -2.14642e-07
-0.000185241 -0.000320656 5.45809e-07
1.77636e-15 -0.000103073 -6.73847e-07
0.000185241 -0.000320656 5.45809e-07
0.000278116 -0.000270069 -2.14642e-07
      </DataArray> 
    </PointData>
    <CellData>
    </CellData>
  </Piece>
  </UnstructuredGrid>
</VTKFile>
