<?xml version="1.0"?>
<VTKFile type="UnstructuredGrid">
  <UnstructuredGrid>
  <Piece NumberOfPoints="30"  NumberOfCells="85">
    <Points>
      <DataArray type="Float64" NumberOfComponents="3" format="ascii">
0 0 0
4 0 0
8 0 0
12 0 0
16 0 0
16.0027 2.99395 0.000176808
12.0018 2.99465 0.000143456
8 2.99408 0.000190406
3.99819 2.99465 0.000143456
-0.00269284 2.99395 0.000176808
0.00190858 -0.0579361 8
4.00191 -0.053738 8
8 -0.060217 8
11.9981 -0.053738 8
15.9981 -0.0579361 8
15.9977 2.94188 8
11.9958 2.94738 8
8 2.9391 8
4.00418 2.94738 8
0.00233269 2.94188 8
0 0 16
4 0 16
8 0 16
12 0 16
16 0 16
16.0027 2.99395 15.9998
12.0018 2.99465 15.9999
8 2.99408 15.9998
3.99819 2.99465 15.9999
-0.00269284 2.99395 15.9998
      </DataArray>
    </Points>
    <Cells>
      <DataArray type="Int32" Name="connectivity" format="ascii">
0 1
1 2
2 3
3 4
4 5
5 6
6 7
7 8
8 9
9 0
8 1
7 2
6 3
10 11
11 12
12 13
13 14
14 15
15 16
16 17
17 18
18 19
19 10
18 11
17 12
16 13
20 21
21 22
22 23
23 24
24 25
25 26
26 27
27 28
28 29
20 29
28 21
22 27
23 26
20 10
10 0
29 19
19 9
21 11
28 18
11 1
18 8
22 12
27 17
12 2
17 7
23 13
26 16
13 3
16 6
24 14
25 15
15 5
14 4
25 23
29 21
19 11
9 1
15 13
5 3
8 2
6 2
18 12
16 12
28 22
26 22
19 20
19 0
21 18
18 1
22 17
17 2
23 16
16 3
15 24
15 4
20 18
18 0
24 16
16 4
      </DataArray>
      <DataArray type="Int32" Name="offsets" format="ascii">
2
4
6
8
10
12
14
16
18
20
22
24
26
28
30
32
34
36
38
40
42
44
46
48
50
52
54
56
58
60
62
64
66
68
70
72
74
76
78
80
82
84
86
88
90
92
94
96
98
100
102
104
106
108
110
112
114
116
118
120
122
124
126
128
130
132
134
136
138
140
142
144
146
148
150
152
154
156
158
160
162
164
166
168
170
      </DataArray>
      <DataArray type="UInt8" Name="types" format="ascii">
4
4
4
4
4
4
4
4
4
4
4
4
4
4
4
4
4
4
4
4
4
4
4
4
4
4
4
4
4
4
4
4
4
4
4
4
4
4
4
4
4
4
4
4
4
4
4
4
4
4
4
4
4
4
4
4
4
4
4
4
4
4
4
4
4
4
4
4
4
4
4
4
4
4
4
4
4
4
4
4
4
4
4
4
4
      </DataArray>
    </Cells>
    <PointData>
      <DataArray type="Float64" NumberOfComponents="3" Name="Displacement" format="ascii">
0 0 0
0 0 0
0 0 0
0 0 0
0 0 0
0.00269284 -0.00604783 0.000176808
0.00180866 -0.0053533 0.000143456
-2.84217e-14 -0.00591769 0.000190406
-0.00180866 -0.0053533 0.000143456
-0.00269284 -0.00604783 0.000176808
0.00190858 -0.0579361 0
0.00190825 -0.053738 0
-1.06581e-14 -0.060217 0
-0.00190825 -0.053738 0
-0.00190858 -0.0579361 0
-0.00233269 -0.0581243 7.10543e-15
-0.00417887 -0.0526212 3.55271e-15
-2.75335e-14 -0.0608984 5.32907e-15
0.00417887 -0.0526212 3.55271e-15
0.00233269 -0.0581243 -2.04281e-14
0 0 0
0 0 0
0 0 0
0 0 0
0 0 0
0.00269284 -0.00604783 -0.000176808
0.00180866 -0.0053533 -0.000143456
3.55271e-15 -0.00591769 -0.000190406
-0.00180866 -0.0053533 -0.000143456
-0.00269284 -0.00604783 -0.000176808
      </DataArray> 
      <DataArray type="Float64" NumberOfComponents="3" Name="Velocity" format="ascii">
0 0 0
0 0 0
0 0 0
0 0 0
0 0 0
-5.95e-06 4.13503e-06 -4.53833e-07
-3.02343e-05 5.5984e-05 6.9653e-07
1.4235e-14 -0.000400961 1.57418e-06
3.02343e-05 5.5984e-05 6.9653e-07
5.95e-06 4.13503e-06 -4.53833e-07
4.79258e-05 7.13542e-05 0
-6.11137e-05 4.43059e-05 0
-3.55875e-15 7.11582e-05 0
6.11137e-05 4.43059e-05 0
-4.79258e-05 7.13542e-05 0
-6.15576e-06 -3.36395e-05 -1.06763e-14
5.73037e-07 -1.41701e-06 -7.88861e-31
-1.15659e-14 -1.04513e-05 -1.4235e-14
-5.73037e-07 -1.41701e-06 -3.55875e-15
6.15576e-06 -3.36395e-05 8.89688e-16
0 0 0
0 0 0
0 0 0
0 0 0
0 0 0
-5.95e-06 4.13503e-06 4.53833e-07
-3.02343e-05 5.5984e-05 -6.9653e-07
3.55875e-15 -0.000400961 -1.57418e-06
3.02343e-05 5.5984e-05 -6.9653e-07
5.95e-06 4.13503e-06 4.53833e-07
      </DataArray> 
      <DataArray type="Float64" NumberOfComponents="3" Name="Acceleration" format="ascii">
0 0 0
0 0 0
0 0 0
0 0 0
0 0 0
4.81713e-05 0.000604205 -1.76337e-06
0.000129612 1.52844e-05 -2.40796e-07
2.4869e-14 -5.13308e-05 -2.32924e-07
-0.000129612 1.52844e-05 -2.40796e-07
-4.81713e-05 0.000604205 -1.76337e-06
7.80956e-07 -0.00016321 0
-5.48536e-07 3.34296e-05 0
3.55271e-15 0.000106179 0
5.48536e-07 3.34296e-05 0
-7.80956e-07 -0.00016321 0
1.46086e-05 8.54485e-05 -3.55271e-15
-2.32671e-05 -3.73921e-05 3.55271e-15
7.99361e-15 -7.75512e-05 8.88178e-15
2.32671e-05 -3.73921e-05 -3.55271e-15
-1.46086e-05 8.54485e-05 4.44089e-15
0 0 0
0 0 0
0 0 0
0 0 0
0 0 0
4.81713e-05 0.000604205 1.76337e-06
0.000129612 1.52844e-05 2.40796e-07
1.9406e-28 -5.13308e-05 2.32924e-07
-0.000129612 1.52844e-05 2.40796e-07
-4.81713e-05 0.000604205 1.76337e-06
      </DataArray> 
    </PointData>
    <CellData>
    </CellData>
  </Piece>
  </UnstructuredGrid>
</VTKFile>
