<?xml version="1.0"?>
<VTKFile type="UnstructuredGrid">
  <UnstructuredGrid>
  <Piece NumberOfPoints="30"  NumberOfCells="85">
    <Points>
      <DataArray type="Float64" NumberOfComponents="3" format="ascii">
0 0 0
4 0 0
8 0 0
12 0 0
16 0 0
16.0028 2.99541 0.000174147
12.002 2.99537 0.000128579
8 2.99508 0.000175182
3.99798 2.99537 0.000128579
-0.00282642 2.99541 0.000174147
0.00193015 -0.0576611 8
4.00169 -0.053101 8
8 -0.0593009 8
11.9983 -0.053101 8
15.9981 -0.0576611 8
15.9978 2.94234 8
11.996 2.94802 8
8 2.94011 8
4.00404 2.94802 8
0.00216887 2.94234 8
0 0 16
4 0 16
8 0 16
12 0 16
16 0 16
16.0028 2.99541 15.9998
12.002 2.99537 15.9999
8 2.99508 15.9998
3.99798 2.99537 15.9999
-0.00282642 2.99541 15.9998
      </DataArray>
    </Points>
    <Cells>
      <DataArray type="Int32" Name="connectivity" format="ascii">
0 1
1 2
2 3
3 4
4 5
5 6
6 7
7 8
8 9
9 0
8 1
7 2
6 3
10 11
11 12
12 13
13 14
14 15
15 16
16 17
17 18
18 19
19 10
18 11
17 12
16 13
20 21
21 22
22 23
23 24
24 25
25 26
26 27
27 28
28 29
20 29
28 21
22 27
23 26
20 10
10 0
29 19
19 9
21 11
28 18
11 1
18 8
22 12
27 17
12 2
17 7
23 13
26 16
13 3
16 6
24 14
25 15
15 5
14 4
25 23
29 21
19 11
9 1
15 13
5 3
8 2
6 2
18 12
16 12
28 22
26 22
19 20
19 0
21 18
18 1
22 17
17 2
23 16
16 3
15 24
15 4
20 18
18 0
24 16
16 4
      </DataArray>
      <DataArray type="Int32" Name="offsets" format="ascii">
2
4
6
8
10
12
14
16
18
20
22
24
26
28
30
32
34
36
38
40
42
44
46
48
50
52
54
56
58
60
62
64
66
68
70
72
74
76
78
80
82
84
86
88
90
92
94
96
98
100
102
104
106
108
110
112
114
116
118
120
122
124
126
128
130
132
134
136
138
140
142
144
146
148
150
152
154
156
158
160
162
164
166
168
170
      </DataArray>
      <DataArray type="UInt8" Name="types" format="ascii">
4
4
4
4
4
4
4
4
4
4
4
4
4
4
4
4
4
4
4
4
4
4
4
4
4
4
4
4
4
4
4
4
4
4
4
4
4
4
4
4
4
4
4
4
4
4
4
4
4
4
4
4
4
4
4
4
4
4
4
4
4
4
4
4
4
4
4
4
4
4
4
4
4
4
4
4
4
4
4
4
4
4
4
4
4
      </DataArray>
    </Cells>
    <PointData>
      <DataArray type="Float64" NumberOfComponents="3" Name="Displacement" format="ascii">
0 0 0
0 0 0
0 0 0
0 0 0
0 0 0
0.00282642 -0.00458907 0.000174147
0.00201716 -0.00462749 0.000128579
-2.57572e-14 -0.00491802 0.000175182
-0.00201716 -0.00462749 0.000128579
-0.00282642 -0.00458907 0.000174147
0.00193015 -0.0576611 0
0.00169145 -0.053101 0
3.01981e-14 -0.0593009 0
-0.00169145 -0.053101 0
-0.00193015 -0.0576611 0
-0.00216887 -0.0576558 1.95399e-14
-0.00404077 -0.0519832 -1.68754e-14
2.30926e-14 -0.0598882 7.10543e-15
0.00404077 -0.0519832 -3.55271e-15
0.00216887 -0.0576558 -5.32907e-15
0 0 0
0 0 0
0 0 0
0 0 0
0 0 0
0.00282642 -0.00458907 -0.000174147
0.00201716 -0.00462749 -0.000128579
-1.77636e-14 -0.00491802 -0.000175182
-0.00201716 -0.00462749 -0.000128579
-0.00282642 -0.00458907 -0.000174147
      </DataArray> 
      <DataArray type="Float64" NumberOfComponents="3" Name="Velocity" format="ascii">
0 0 0
0 0 0
0 0 0
0 0 0
0 0 0
-0.000191355 0.000133922 -1.95403e-06
-0.000209622 0.000361875 -1.25854e-06
-9.78656e-15 0.000324933 1.401e-07
0.000209622 0.000361875 -1.25854e-06
0.000191355 0.000133922 -1.95403e-06
-0.000201623 -6.06691e-05 0
0.000215353 -0.000255759 0
5.33813e-15 -0.00058133 0
-0.000215353 -0.000255759 0
0.000201623 -6.06691e-05 0
-4.02608e-06 -0.000403371 8.89688e-15
5.96989e-05 -0.000225821 2.66906e-15
1.77938e-15 -0.000106333 1.77938e-15
-5.96989e-05 -0.000225821 -5.33813e-15
4.02608e-06 -0.000403371 7.1175e-15
0 0 0
0 0 0
0 0 0
0 0 0
0 0 0
-0.000191355 0.000133922 1.95403e-06
-0.000209622 0.000361875 1.25854e-06
-1.4235e-14 0.000324933 -1.401e-07
0.000209622 0.000361875 1.25854e-06
0.000191355 0.000133922 1.95403e-06
      </DataArray> 
      <DataArray type="Float64" NumberOfComponents="3" Name="Acceleration" format="ascii">
0 0 0
0 0 0
0 0 0
0 0 0
0 0 0
-0.000366198 -0.00120034 1.56704e-06
-0.000287165 -0.000769044 4.54681e-06
-8.88178e-16 -0.00110393 5.66265e-06
0.000287165 -0.000769044 4.54681e-06
0.000366198 -0.00120034 1.56704e-06
-0.000152379 5.94197e-06 0
0.000253046 4.27938e-06 0
1.24345e-14 0.000140279 0
-0.000253046 4.27938e-06 0
0.000152379 5.94197e-06 0
3.65885e-05 8.48052e-06 -5.32907e-15
-2.88832e-05 -5.34847e-05 8.88178e-16
8.88178e-15 -0.000156218 3.55271e-15
2.88832e-05 -5.34847e-05 3.55271e-15
-3.65885e-05 8.48052e-06 1.77636e-15
0 0 0
0 0 0
0 0 0
0 0 0
0 0 0
-0.000366198 -0.00120034 -1.56704e-06
-0.000287165 -0.000769044 -4.54681e-06
1.06581e-14 -0.00110393 -5.66265e-06
0.000287165 -0.000769044 -4.54681e-06
0.000366198 -0.00120034 -1.56704e-06
      </DataArray> 
    </PointData>
    <CellData>
    </CellData>
  </Piece>
  </UnstructuredGrid>
</VTKFile>
