<?xml version="1.0"?>
<VTKFile type="UnstructuredGrid">
  <UnstructuredGrid>
  <Piece NumberOfPoints="36"  NumberOfCells="69">
    <Points>
      <DataArray type="Float64" NumberOfComponents="3" format="ascii">
0 0 0
-0.00269055 0.999488 0
-0.00665602 1.99944 0
-0.00954652 2.99986 0
-0.00901549 4.00074 0
-0.00244969 5.00206 0
0.0162334 6.00189 0
0.416191 5.99609 0
3.41683 5.91955 0
6.41316 5.85781 0
9.40546 5.85719 0
12.3972 5.91763 0
15.3931 5.99475 0
15.7933 6.00075 0
15.811 4.99959 0
15.8153 3.99874 0
15.814 2.99835 0
15.8095 1.99843 0
15.804 0.998983 0
15.8 0 0
15.4 0 0
15.4041 1.00002 0
15.4096 1.99957 0
15.4141 2.99865 0
15.4154 3.99728 0
15.4111 4.99543 0
12.4142 4.91829 0
9.41233 4.85777 0
6.40524 4.85789 0
3.39877 4.91921 0
0.397304 4.99762 0
0.391052 3.99904 0
0.390527 2.99998 0
0.393417 2.00045 0
0.397383 1.00046 0
0.4 0 0
      </DataArray>
    </Points>
    <Cells>
      <DataArray type="Int32" Name="connectivity" format="ascii">
0 1
1 2
2 3
3 4
4 5
5 6
6 7
7 8
8 9
9 10
10 11
11 12
12 13
13 14
14 15
15 16
16 17
17 18
18 19
19 20
20 21
21 22
22 23
23 24
24 25
25 26
26 27
27 28
28 29
29 30
30 31
31 32
32 33
33 34
34 35
0 35
0 34
1 34
1 33
2 33
2 32
3 32
3 31
4 31
4 30
5 30
5 7
30 7
30 8
29 8
29 9
28 9
28 10
27 10
27 11
26 11
26 12
25 12
25 13
25 14
24 14
24 15
23 15
23 16
22 16
22 17
21 17
21 18
20 18
      </DataArray>
      <DataArray type="Int32" Name="offsets" format="ascii">
2
4
6
8
10
12
14
16
18
20
22
24
26
28
30
32
34
36
38
40
42
44
46
48
50
52
54
56
58
60
62
64
66
68
70
72
74
76
78
80
82
84
86
88
90
92
94
96
98
100
102
104
106
108
110
112
114
116
118
120
122
124
126
128
130
132
134
136
138
      </DataArray>
      <DataArray type="UInt8" Name="types" format="ascii">
4
4
4
4
4
4
4
4
4
4
4
4
4
4
4
4
4
4
4
4
4
4
4
4
4
4
4
4
4
4
4
4
4
4
4
4
4
4
4
4
4
4
4
4
4
4
4
4
4
4
4
4
4
4
4
4
4
4
4
4
4
4
4
4
4
4
4
4
4
      </DataArray>
    </Cells>
    <PointData>
      <DataArray type="Float64" NumberOfComponents="3" Name="Displacement" format="ascii">
0 0 0
-0.00269055 -0.000512378 0
-0.00665602 -0.000561044 0
-0.00954652 -0.000140304 0
-0.00901549 0.000744994 0
-0.00244969 0.00206228 0
0.0162334 0.00188774 0
0.0161914 -0.0039074 0
0.0168252 -0.0804489 0
0.0131611 -0.142194 0
0.005462 -0.142812 0
-0.00284367 -0.0823742 0
-0.00688329 -0.00524904 0
-0.00671755 0.000751174 0
0.0110266 -0.000406636 0
0.015343 -0.00125743 0
0.0140474 -0.00165386 0
0.00947598 -0.00157282 0
0.00398267 -0.00101722 0
0 0 0
0 0 0
0.00405919 2.30334e-05 0
0.00955275 -0.000430511 0
0.014123 -0.00134884 0
0.0154219 -0.0027237 0
0.0111284 -0.00456678 0
0.0142325 -0.0817094 0
0.0123323 -0.142227 0
0.00523691 -0.142115 0
-0.00122734 -0.0807945 0
-0.00269597 -0.00237677 0
-0.00894842 -0.000957089 0
-0.00947323 -2.07324e-05 0
-0.0065827 0.000452281 0
-0.00261719 0.000461098 0
0 0 0
      </DataArray> 
      <DataArray type="Float64" NumberOfComponents="3" Name="Velocity" format="ascii">
0 0 0
0 0 0
0 0 0
0 0 0
0 0 0
0 0 0
0 0 0
0 0 0
0 0 0
0 0 0
0 0 0
0 0 0
0 0 0
0 0 0
0 0 0
0 0 0
0 0 0
0 0 0
0 0 0
0 0 0
0 0 0
0 0 0
0 0 0
0 0 0
0 0 0
0 0 0
0 0 0
0 0 0
0 0 0
0 0 0
0 0 0
0 0 0
0 0 0
0 0 0
0 0 0
0 0 0
      </DataArray> 
      <DataArray type="Float64" NumberOfComponents="3" Name="Acceleration" format="ascii">
0 0 0
0 0 0
0 0 0
0 0 0
0 0 0
0 0 0
0 0 0
0 0 0
0 0 0
0 0 0
0 0 0
0 0 0
0 0 0
0 0 0
0 0 0
0 0 0
0 0 0
0 0 0
0 0 0
0 0 0
0 0 0
0 0 0
0 0 0
0 0 0
0 0 0
0 0 0
0 0 0
0 0 0
0 0 0
0 0 0
0 0 0
0 0 0
0 0 0
0 0 0
0 0 0
0 0 0
      </DataArray> 
    </PointData>
    <CellData>
    </CellData>
  </Piece>
  </UnstructuredGrid>
</VTKFile>
