<?xml version="1.0"?>
<VTKFile type="UnstructuredGrid">
  <UnstructuredGrid>
  <Piece NumberOfPoints="36"  NumberOfCells="69">
    <Points>
      <DataArray type="Float64" NumberOfComponents="3" format="ascii">
0 0 0
-0.00306437 0.999417 0
-0.00756807 1.99936 0
-0.0108221 2.99985 0
-0.0101422 4.00086 0
-0.00254284 5.00236 0
0.0189073 6.00213 0
0.418852 5.99547 0
3.41941 5.90763 0
6.41509 5.83682 0
9.40626 5.83612 0
12.3966 5.90544 0
15.3918 5.99394 0
15.792 6.00084 0
15.8124 4.99954 0
15.8174 3.99857 0
15.816 2.99811 0
15.8108 1.9982 0
15.8045 0.998838 0
15.8 0 0
15.4 0 0
15.4046 1.00002 0
15.4109 1.9995 0
15.4161 2.99844 0
15.4175 3.99686 0
15.4125 4.99475 0
12.4162 4.90623 0
9.41414 4.83681 0
6.406 4.83692 0
3.39869 4.90727 0
0.39717 4.99726 0
0.389933 3.99889 0
0.389261 2.99996 0
0.392516 2.00051 0
0.397019 1.00052 0
0.4 0 0
      </DataArray>
    </Points>
    <Cells>
      <DataArray type="Int32" Name="connectivity" format="ascii">
0 1
1 2
2 3
3 4
4 5
5 6
6 7
7 8
8 9
9 10
10 11
11 12
12 13
13 14
14 15
15 16
16 17
17 18
18 19
19 20
20 21
21 22
22 23
23 24
24 25
25 26
26 27
27 28
28 29
29 30
30 31
31 32
32 33
33 34
34 35
0 35
0 34
1 34
1 33
2 33
2 32
3 32
3 31
4 31
4 30
5 30
5 7
30 7
30 8
29 8
29 9
28 9
28 10
27 10
27 11
26 11
26 12
25 12
25 13
25 14
24 14
24 15
23 15
23 16
22 16
22 17
21 17
21 18
20 18
      </DataArray>
      <DataArray type="Int32" Name="offsets" format="ascii">
2
4
6
8
10
12
14
16
18
20
22
24
26
28
30
32
34
36
38
40
42
44
46
48
50
52
54
56
58
60
62
64
66
68
70
72
74
76
78
80
82
84
86
88
90
92
94
96
98
100
102
104
106
108
110
112
114
116
118
120
122
124
126
128
130
132
134
136
138
      </DataArray>
      <DataArray type="UInt8" Name="types" format="ascii">
4
4
4
4
4
4
4
4
4
4
4
4
4
4
4
4
4
4
4
4
4
4
4
4
4
4
4
4
4
4
4
4
4
4
4
4
4
4
4
4
4
4
4
4
4
4
4
4
4
4
4
4
4
4
4
4
4
4
4
4
4
4
4
4
4
4
4
4
4
      </DataArray>
    </Cells>
    <PointData>
      <DataArray type="Float64" NumberOfComponents="3" Name="Displacement" format="ascii">
0 0 0
-0.00306437 -0.00058289 0
-0.00756807 -0.0006361 0
-0.0108221 -0.000152288 0
-0.0101422 0.000861935 0
-0.00254284 0.00236354 0
0.0189073 0.00213346 0
0.0188518 -0.00452746 0
0.0194071 -0.0923677 0
0.0150943 -0.163181 0
0.00625725 -0.163877 0
-0.00337697 -0.0945559 0
-0.00818168 -0.00605979 0
-0.00800009 0.000839948 0
0.0123832 -0.000456722 0
0.0174054 -0.00143021 0
0.015989 -0.0018869 0
0.0108048 -0.00179617 0
0.00454684 -0.00116158 0
0 0 0
0 0 0
0.00463461 2.11741e-05 0
0.0108929 -0.00050397 0
0.0160756 -0.00156002 0
0.0174965 -0.00313635 0
0.0125045 -0.00524858 0
0.0162219 -0.0937678 0
0.0141367 -0.163194 0
0.00599874 -0.163077 0
-0.00131027 -0.092735 0
-0.00283005 -0.00274431 0
-0.0100669 -0.00111366 0
-0.0107386 -3.87665e-05 0
-0.00748444 0.000506831 0
-0.00298069 0.000522229 0
0 0 0
      </DataArray> 
      <DataArray type="Float64" NumberOfComponents="3" Name="Velocity" format="ascii">
0 0 0
0 0 0
0 0 0
0 0 0
0 0 0
0 0 0
0 0 0
0 0 0
0 0 0
0 0 0
0 0 0
0 0 0
0 0 0
0 0 0
0 0 0
0 0 0
0 0 0
0 0 0
0 0 0
0 0 0
0 0 0
0 0 0
0 0 0
0 0 0
0 0 0
0 0 0
0 0 0
0 0 0
0 0 0
0 0 0
0 0 0
0 0 0
0 0 0
0 0 0
0 0 0
0 0 0
      </DataArray> 
      <DataArray type="Float64" NumberOfComponents="3" Name="Acceleration" format="ascii">
0 0 0
0 0 0
0 0 0
0 0 0
0 0 0
0 0 0
0 0 0
0 0 0
0 0 0
0 0 0
0 0 0
0 0 0
0 0 0
0 0 0
0 0 0
0 0 0
0 0 0
0 0 0
0 0 0
0 0 0
0 0 0
0 0 0
0 0 0
0 0 0
0 0 0
0 0 0
0 0 0
0 0 0
0 0 0
0 0 0
0 0 0
0 0 0
0 0 0
0 0 0
0 0 0
0 0 0
      </DataArray> 
    </PointData>
    <CellData>
    </CellData>
  </Piece>
  </UnstructuredGrid>
</VTKFile>
