<?xml version="1.0"?>
<VTKFile type="UnstructuredGrid">
  <UnstructuredGrid>
  <Piece NumberOfPoints="36"  NumberOfCells="69">
    <Points>
      <DataArray type="Float64" NumberOfComponents="3" format="ascii">
0 0 0
-0.00199242 0.99962 0
-0.00494362 1.99958 0
-0.00712815 2.99989 0
-0.00682222 4.00054 0
-0.00210138 5.00151 0
0.011534 6.00142 0
0.411512 5.9972 0
3.41217 5.94129 0
6.40962 5.89614 0
9.404 5.89567 0
12.3981 5.93986 0
15.3953 5.99621 0
15.7954 6.00057 0
15.8084 4.99969 0
15.8114 3.99907 0
15.8104 2.99878 0
15.807 1.99884 0
15.8029 0.99925 0
15.8 0 0
15.4 0 0
15.403 1.00002 0
15.4071 1.9997 0
15.4105 2.99903 0
15.4115 3.99802 0
15.4084 4.99667 0
12.4105 4.94032 0
9.40903 4.89609 0
6.40384 4.89618 0
3.39899 4.941 0
0.397724 4.99828 0
0.393229 3.99932 0
0.392926 3 0
0.395111 2.00034 0
0.398062 1.00034 0
0.4 0 0
      </DataArray>
    </Points>
    <Cells>
      <DataArray type="Int32" Name="connectivity" format="ascii">
0 1
1 2
2 3
3 4
4 5
5 6
6 7
7 8
8 9
9 10
10 11
11 12
12 13
13 14
14 15
15 16
16 17
17 18
18 19
19 20
20 21
21 22
22 23
23 24
24 25
25 26
26 27
27 28
28 29
29 30
30 31
31 32
32 33
33 34
34 35
0 35
0 34
1 34
1 33
2 33
2 32
3 32
3 31
4 31
4 30
5 30
5 7
30 7
30 8
29 8
29 9
28 9
28 10
27 10
27 11
26 11
26 12
25 12
25 13
25 14
24 14
24 15
23 15
23 16
22 16
22 17
21 17
21 18
20 18
      </DataArray>
      <DataArray type="Int32" Name="offsets" format="ascii">
2
4
6
8
10
12
14
16
18
20
22
24
26
28
30
32
34
36
38
40
42
44
46
48
50
52
54
56
58
60
62
64
66
68
70
72
74
76
78
80
82
84
86
88
90
92
94
96
98
100
102
104
106
108
110
112
114
116
118
120
122
124
126
128
130
132
134
136
138
      </DataArray>
      <DataArray type="UInt8" Name="types" format="ascii">
4
4
4
4
4
4
4
4
4
4
4
4
4
4
4
4
4
4
4
4
4
4
4
4
4
4
4
4
4
4
4
4
4
4
4
4
4
4
4
4
4
4
4
4
4
4
4
4
4
4
4
4
4
4
4
4
4
4
4
4
4
4
4
4
4
4
4
4
4
      </DataArray>
    </Cells>
    <PointData>
      <DataArray type="Float64" NumberOfComponents="3" Name="Displacement" format="ascii">
0 0 0
-0.00199242 -0.000380174 0
-0.00494362 -0.000418708 0
-0.00712815 -0.000112449 0
-0.00682222 0.000536185 0
-0.00210138 0.00150992 0
0.011534 0.00141696 0
0.0115118 -0.00280379 0
0.0121746 -0.0587086 0
0.00962434 -0.103861 0
0.0040025 -0.104328 0
-0.00194463 -0.0601397 0
-0.00469889 -0.00379213 0
-0.00456792 0.000574323 0
0.00836919 -0.000308447 0
0.011442 -0.000933081 0
0.0104138 -0.00122063 0
0.0070028 -0.00115891 0
0.00293664 -0.000749691 0
0 0 0
0 0 0
0.00299259 2.29715e-05 0
0.00705889 -0.000302789 0
0.0104692 -0.000970902 0
0.0114992 -0.00197678 0
0.00843852 -0.0033265 0
0.0105256 -0.0596832 0
0.00902626 -0.103914 0
0.00383831 -0.103819 0
-0.00101079 -0.0589952 0
-0.00227599 -0.00171666 0
-0.00677128 -0.000681153 0
-0.00707395 2.43691e-06 0
-0.00488945 0.000344655 0
-0.00193822 0.000344885 0
0 0 0
      </DataArray> 
      <DataArray type="Float64" NumberOfComponents="3" Name="Velocity" format="ascii">
0 0 0
0 0 0
0 0 0
0 0 0
0 0 0
0 0 0
0 0 0
0 0 0
0 0 0
0 0 0
0 0 0
0 0 0
0 0 0
0 0 0
0 0 0
0 0 0
0 0 0
0 0 0
0 0 0
0 0 0
0 0 0
0 0 0
0 0 0
0 0 0
0 0 0
0 0 0
0 0 0
0 0 0
0 0 0
0 0 0
0 0 0
0 0 0
0 0 0
0 0 0
0 0 0
0 0 0
      </DataArray> 
      <DataArray type="Float64" NumberOfComponents="3" Name="Acceleration" format="ascii">
0 0 0
0 0 0
0 0 0
0 0 0
0 0 0
0 0 0
0 0 0
0 0 0
0 0 0
0 0 0
0 0 0
0 0 0
0 0 0
0 0 0
0 0 0
0 0 0
0 0 0
0 0 0
0 0 0
0 0 0
0 0 0
0 0 0
0 0 0
0 0 0
0 0 0
0 0 0
0 0 0
0 0 0
0 0 0
0 0 0
0 0 0
0 0 0
0 0 0
0 0 0
0 0 0
0 0 0
      </DataArray> 
    </PointData>
    <CellData>
    </CellData>
  </Piece>
  </UnstructuredGrid>
</VTKFile>
