<?xml version="1.0"?>
<VTKFile type="UnstructuredGrid">
  <UnstructuredGrid>
  <Piece NumberOfPoints="36"  NumberOfCells="69">
    <Points>
      <DataArray type="Float64" NumberOfComponents="3" format="ascii">
0 0 0
-0.00233709 0.999554 0
-0.00579047 1.99951 0
-0.00832779 2.99987 0
-0.0079191 4.00064 0
-0.00230088 5.00178 0
0.0138076 6.00165 0
0.413776 5.99666 0
3.41444 5.93064 0
6.41136 5.87735 0
9.40472 5.87681 0
12.3976 5.92896 0
15.3943 5.9955 0
15.7944 6.00066 0
15.8097 4.99964 0
15.8134 3.99891 0
15.8122 2.99857 0
15.8082 1.99864 0
15.8035 0.999119 0
15.8 0 0
15.4 0 0
15.4035 1.00002 0
15.4083 1.99964 0
15.4123 2.99885 0
15.4134 3.99766 0
15.4098 4.99607 0
12.4124 4.92952 0
9.41065 4.8773 0
6.40452 4.87741 0
3.39887 4.93032 0
0.39749 4.99796 0
0.39214 3.99919 0
0.391736 2.99999 0
0.394273 2.0004 0
0.397727 1.0004 0
0.4 0 0
      </DataArray>
    </Points>
    <Cells>
      <DataArray type="Int32" Name="connectivity" format="ascii">
0 1
1 2
2 3
3 4
4 5
5 6
6 7
7 8
8 9
9 10
10 11
11 12
12 13
13 14
14 15
15 16
16 17
17 18
18 19
19 20
20 21
21 22
22 23
23 24
24 25
25 26
26 27
27 28
28 29
29 30
30 31
31 32
32 33
33 34
34 35
0 35
0 34
1 34
1 33
2 33
2 32
3 32
3 31
4 31
4 30
5 30
5 7
30 7
30 8
29 8
29 9
28 9
28 10
27 10
27 11
26 11
26 12
25 12
25 13
25 14
24 14
24 15
23 15
23 16
22 16
22 17
21 17
21 18
20 18
      </DataArray>
      <DataArray type="Int32" Name="offsets" format="ascii">
2
4
6
8
10
12
14
16
18
20
22
24
26
28
30
32
34
36
38
40
42
44
46
48
50
52
54
56
58
60
62
64
66
68
70
72
74
76
78
80
82
84
86
88
90
92
94
96
98
100
102
104
106
108
110
112
114
116
118
120
122
124
126
128
130
132
134
136
138
      </DataArray>
      <DataArray type="UInt8" Name="types" format="ascii">
4
4
4
4
4
4
4
4
4
4
4
4
4
4
4
4
4
4
4
4
4
4
4
4
4
4
4
4
4
4
4
4
4
4
4
4
4
4
4
4
4
4
4
4
4
4
4
4
4
4
4
4
4
4
4
4
4
4
4
4
4
4
4
4
4
4
4
4
4
      </DataArray>
    </Cells>
    <PointData>
      <DataArray type="Float64" NumberOfComponents="3" Name="Displacement" format="ascii">
0 0 0
-0.00233709 -0.000445523 0
-0.00579047 -0.000489314 0
-0.00832779 -0.000127055 0
-0.0079191 0.000637768 0
-0.00230088 0.001781 0
0.0138076 0.00165125 0
0.0137765 -0.00334006 0
0.0144435 -0.0693597 0
0.0113589 -0.122649 0
0.00471901 -0.123192 0
-0.00237315 -0.0710354 0
-0.00573932 -0.00450236 0
-0.00559038 0.000663377 0
0.00970069 -0.000357651 0
0.0133757 -0.00109346 0
0.0122089 -0.00143419 0
0.00822248 -0.00136274 0
0.00345187 -0.00088144 0
0 0 0
0 0 0
0.00351791 2.35623e-05 0
0.00828871 -0.000364341 0
0.0122742 -0.00115487 0
0.0134435 -0.00234176 0
0.0097855 -0.0039336 0
0.0123544 -0.0704794 0
0.0106483 -0.122696 0
0.00452499 -0.122591 0
-0.00112745 -0.0696784 0
-0.00251012 -0.00203841 0
-0.00786006 -0.000814774 0
-0.00826417 -7.33132e-06 0
-0.00572686 0.000398705 0
-0.00227344 0.000402585 0
0 0 0
      </DataArray> 
      <DataArray type="Float64" NumberOfComponents="3" Name="Velocity" format="ascii">
0 0 0
0 0 0
0 0 0
0 0 0
0 0 0
0 0 0
0 0 0
0 0 0
0 0 0
0 0 0
0 0 0
0 0 0
0 0 0
0 0 0
0 0 0
0 0 0
0 0 0
0 0 0
0 0 0
0 0 0
0 0 0
0 0 0
0 0 0
0 0 0
0 0 0
0 0 0
0 0 0
0 0 0
0 0 0
0 0 0
0 0 0
0 0 0
0 0 0
0 0 0
0 0 0
0 0 0
      </DataArray> 
      <DataArray type="Float64" NumberOfComponents="3" Name="Acceleration" format="ascii">
0 0 0
0 0 0
0 0 0
0 0 0
0 0 0
0 0 0
0 0 0
0 0 0
0 0 0
0 0 0
0 0 0
0 0 0
0 0 0
0 0 0
0 0 0
0 0 0
0 0 0
0 0 0
0 0 0
0 0 0
0 0 0
0 0 0
0 0 0
0 0 0
0 0 0
0 0 0
0 0 0
0 0 0
0 0 0
0 0 0
0 0 0
0 0 0
0 0 0
0 0 0
0 0 0
0 0 0
      </DataArray> 
    </PointData>
    <CellData>
    </CellData>
  </Piece>
  </UnstructuredGrid>
</VTKFile>
