<?xml version="1.0"?>
<VTKFile type="UnstructuredGrid">
  <UnstructuredGrid>
  <Piece NumberOfPoints="36"  NumberOfCells="69">
    <Points>
      <DataArray type="Float64" NumberOfComponents="3" format="ascii">
0 0 0
-0.0015194 0.99971 0
-0.00377711 1.99968 0
-0.00546463 2.99991 0
-0.00527439 4.0004 0
-0.00174419 5.00114 0
0.00855496 6.00109 0
0.408542 5.99791 0
3.40914 5.95566 0
6.40728 5.92151 0
9.40303 5.92115 0
12.3986 5.95457 0
15.3966 5.99716 0
15.7967 6.00045 0
15.8065 4.99976 0
15.8088 3.99929 0
15.8079 2.99907 0
15.8053 1.99912 0
15.8022 0.99943 0
15.8 0 0
15.4 0 0
15.4023 1.00002 0
15.4054 1.99978 0
15.408 2.99927 0
15.4088 3.99851 0
15.4065 4.99749 0
12.408 4.9549 0
9.40683 4.92145 0
6.40291 4.92153 0
3.39918 4.95543 0
0.398126 4.99871 0
0.394765 3.99949 0
0.394577 3.00001 0
0.396264 2.00027 0
0.398522 1.00026 0
0.4 0 0
      </DataArray>
    </Points>
    <Cells>
      <DataArray type="Int32" Name="connectivity" format="ascii">
0 1
1 2
2 3
3 4
4 5
5 6
6 7
7 8
8 9
9 10
10 11
11 12
12 13
13 14
14 15
15 16
16 17
17 18
18 19
19 20
20 21
21 22
22 23
23 24
24 25
25 26
26 27
27 28
28 29
29 30
30 31
31 32
32 33
33 34
34 35
0 35
0 34
1 34
1 33
2 33
2 32
3 32
3 31
4 31
4 30
5 30
5 7
30 7
30 8
29 8
29 9
28 9
28 10
27 10
27 11
26 11
26 12
25 12
25 13
25 14
24 14
24 15
23 15
23 16
22 16
22 17
21 17
21 18
20 18
      </DataArray>
      <DataArray type="Int32" Name="offsets" format="ascii">
2
4
6
8
10
12
14
16
18
20
22
24
26
28
30
32
34
36
38
40
42
44
46
48
50
52
54
56
58
60
62
64
66
68
70
72
74
76
78
80
82
84
86
88
90
92
94
96
98
100
102
104
106
108
110
112
114
116
118
120
122
124
126
128
130
132
134
136
138
      </DataArray>
      <DataArray type="UInt8" Name="types" format="ascii">
4
4
4
4
4
4
4
4
4
4
4
4
4
4
4
4
4
4
4
4
4
4
4
4
4
4
4
4
4
4
4
4
4
4
4
4
4
4
4
4
4
4
4
4
4
4
4
4
4
4
4
4
4
4
4
4
4
4
4
4
4
4
4
4
4
4
4
4
4
      </DataArray>
    </Cells>
    <PointData>
      <DataArray type="Float64" NumberOfComponents="3" Name="Displacement" format="ascii">
0 0 0
-0.0015194 -0.000290259 0
-0.00377711 -0.000320831 0
-0.00546463 -8.9871e-05 0
-0.00527439 0.000401304 0
-0.00174419 0.00114287 0
0.00855496 0.00108983 0
0.00854229 -0.00209385 0
0.00914325 -0.044341 0
0.00727914 -0.0784905 0
0.00303142 -0.0788514 0
-0.00140316 -0.0454349 0
-0.00338638 -0.00284487 0
-0.0032825 0.000446849 0
0.00648264 -0.000238753 0
0.00876485 -0.00071232 0
0.00794683 -0.000928632 0
0.00533303 -0.0008808 0
0.0022332 -0.0005699 0
0 0 0
0 0 0
0.0022755 2.04536e-05 0
0.00537542 -0.000222918 0
0.00798884 -0.00072644 0
0.00880779 -0.00148742 0
0.00653254 -0.00250927 0
0.00801961 -0.0451045 0
0.00683081 -0.0785452 0
0.00290744 -0.0784666 0
-0.000821151 -0.0445747 0
-0.00187354 -0.00128768 0
-0.00523493 -0.000505728 0
-0.00542334 1.07306e-05 0
-0.00373585 0.000267681 0
-0.00147811 0.000264709 0
0 0 0
      </DataArray> 
      <DataArray type="Float64" NumberOfComponents="3" Name="Velocity" format="ascii">
0 0 0
0 0 0
0 0 0
0 0 0
0 0 0
0 0 0
0 0 0
0 0 0
0 0 0
0 0 0
0 0 0
0 0 0
0 0 0
0 0 0
0 0 0
0 0 0
0 0 0
0 0 0
0 0 0
0 0 0
0 0 0
0 0 0
0 0 0
0 0 0
0 0 0
0 0 0
0 0 0
0 0 0
0 0 0
0 0 0
0 0 0
0 0 0
0 0 0
0 0 0
0 0 0
0 0 0
      </DataArray> 
      <DataArray type="Float64" NumberOfComponents="3" Name="Acceleration" format="ascii">
0 0 0
0 0 0
0 0 0
0 0 0
0 0 0
0 0 0
0 0 0
0 0 0
0 0 0
0 0 0
0 0 0
0 0 0
0 0 0
0 0 0
0 0 0
0 0 0
0 0 0
0 0 0
0 0 0
0 0 0
0 0 0
0 0 0
0 0 0
0 0 0
0 0 0
0 0 0
0 0 0
0 0 0
0 0 0
0 0 0
0 0 0
0 0 0
0 0 0
0 0 0
0 0 0
0 0 0
      </DataArray> 
    </PointData>
    <CellData>
    </CellData>
  </Piece>
  </UnstructuredGrid>
</VTKFile>
