<?xml version="1.0"?>
<VTKFile type="UnstructuredGrid">
  <UnstructuredGrid>
  <Piece NumberOfPoints="36"  NumberOfCells="69">
    <Points>
      <DataArray type="Float64" NumberOfComponents="3" format="ascii">
0 0 0
-0.00225123 0.999571 0
-0.00557978 1.99953 0
-0.00802998 2.99988 0
-0.00764839 4.00061 0
-0.00225612 5.00171 0
0.0132329 6.00159 0
0.413204 5.9968 0
3.41387 5.93331 0
6.41092 5.88206 0
9.40454 5.88153 0
12.3977 5.93169 0
15.3945 5.99568 0
15.7947 6.00064 0
15.8094 4.99965 0
15.8129 3.99895 0
15.8118 2.99862 0
15.8079 1.99869 0
15.8033 0.999151 0
15.8 0 0
15.4 0 0
15.4034 1.00002 0
15.408 1.99965 0
15.4118 2.99889 0
15.413 3.99775 0
15.4095 4.99622 0
12.4119 4.93222 0
9.41024 4.88201 0
6.40435 4.88211 0
3.3989 4.933 0
0.397543 4.99804 0
0.392409 3.99922 0
0.392031 3 0
0.394481 2.00039 0
0.39781 1.00039 0
0.4 0 0
      </DataArray>
    </Points>
    <Cells>
      <DataArray type="Int32" Name="connectivity" format="ascii">
0 1
1 2
2 3
3 4
4 5
5 6
6 7
7 8
8 9
9 10
10 11
11 12
12 13
13 14
14 15
15 16
16 17
17 18
18 19
19 20
20 21
21 22
22 23
23 24
24 25
25 26
26 27
27 28
28 29
29 30
30 31
31 32
32 33
33 34
34 35
0 35
0 34
1 34
1 33
2 33
2 32
3 32
3 31
4 31
4 30
5 30
5 7
30 7
30 8
29 8
29 9
28 9
28 10
27 10
27 11
26 11
26 12
25 12
25 13
25 14
24 14
24 15
23 15
23 16
22 16
22 17
21 17
21 18
20 18
      </DataArray>
      <DataArray type="Int32" Name="offsets" format="ascii">
2
4
6
8
10
12
14
16
18
20
22
24
26
28
30
32
34
36
38
40
42
44
46
48
50
52
54
56
58
60
62
64
66
68
70
72
74
76
78
80
82
84
86
88
90
92
94
96
98
100
102
104
106
108
110
112
114
116
118
120
122
124
126
128
130
132
134
136
138
      </DataArray>
      <DataArray type="UInt8" Name="types" format="ascii">
4
4
4
4
4
4
4
4
4
4
4
4
4
4
4
4
4
4
4
4
4
4
4
4
4
4
4
4
4
4
4
4
4
4
4
4
4
4
4
4
4
4
4
4
4
4
4
4
4
4
4
4
4
4
4
4
4
4
4
4
4
4
4
4
4
4
4
4
4
      </DataArray>
    </Cells>
    <PointData>
      <DataArray type="Float64" NumberOfComponents="3" Name="Displacement" format="ascii">
0 0 0
-0.00225123 -0.000429259 0
-0.00557978 -0.000471785 0
-0.00802998 -0.000123569 0
-0.00764839 0.000612194 0
-0.00225612 0.00171318 0
0.0132329 0.00159322 0
0.0132042 -0.00320494 0
0.0138735 -0.0666918 0
0.0109247 -0.117945 0
0.00453981 -0.118469 0
-0.00226365 -0.0683066 0
-0.00547333 -0.00432382 0
-0.00532873 0.000641506 0
0.00937252 -0.000345524 0
0.0128954 -0.00105356 0
0.0117619 -0.00138093 0
0.00791842 -0.00131187 0
0.00332331 -0.000848562 0
0 0 0
0 0 0
0.00338683 2.35157e-05 0
0.00798211 -0.000348738 0
0.0118248 -0.00110858 0
0.0129605 -0.00225017 0
0.00945336 -0.00378143 0
0.0118986 -0.0677761 0
0.0102425 -0.117993 0
0.00435326 -0.11789 0
-0.00110014 -0.067003 0
-0.0024566 -0.00195752 0
-0.00759134 -0.000781021 0
-0.00796871 -4.59766e-06 0
-0.00551852 0.000385405 0
-0.00218994 0.00038827 0
0 0 0
      </DataArray> 
      <DataArray type="Float64" NumberOfComponents="3" Name="Velocity" format="ascii">
0 0 0
0 0 0
0 0 0
0 0 0
0 0 0
0 0 0
0 0 0
0 0 0
0 0 0
0 0 0
0 0 0
0 0 0
0 0 0
0 0 0
0 0 0
0 0 0
0 0 0
0 0 0
0 0 0
0 0 0
0 0 0
0 0 0
0 0 0
0 0 0
0 0 0
0 0 0
0 0 0
0 0 0
0 0 0
0 0 0
0 0 0
0 0 0
0 0 0
0 0 0
0 0 0
0 0 0
      </DataArray> 
      <DataArray type="Float64" NumberOfComponents="3" Name="Acceleration" format="ascii">
0 0 0
0 0 0
0 0 0
0 0 0
0 0 0
0 0 0
0 0 0
0 0 0
0 0 0
0 0 0
0 0 0
0 0 0
0 0 0
0 0 0
0 0 0
0 0 0
0 0 0
0 0 0
0 0 0
0 0 0
0 0 0
0 0 0
0 0 0
0 0 0
0 0 0
0 0 0
0 0 0
0 0 0
0 0 0
0 0 0
0 0 0
0 0 0
0 0 0
0 0 0
0 0 0
0 0 0
      </DataArray> 
    </PointData>
    <CellData>
    </CellData>
  </Piece>
  </UnstructuredGrid>
</VTKFile>
