<?xml version="1.0"?>
<VTKFile type="UnstructuredGrid">
  <UnstructuredGrid>
  <Piece NumberOfPoints="36"  NumberOfCells="69">
    <Points>
      <DataArray type="Float64" NumberOfComponents="3" format="ascii">
0 0 0
-0.00194911 0.999628 0
-0.004837 1.99959 0
-0.00697663 2.99989 0
-0.0066825 4.00052 0
-0.00207262 5.00148 0
0.0112546 6.00139 0
0.411233 5.99726 0
3.41189 5.94262 0
6.40941 5.89848 0
9.40391 5.89802 0
12.3981 5.94122 0
15.3954 5.9963 0
15.7956 6.00056 0
15.8082 4.9997 0
15.8112 3.99909 0
15.8102 2.99881 0
15.8068 1.99887 0
15.8029 0.999267 0
15.8 0 0
15.4 0 0
15.4029 1.00002 0
15.4069 1.9997 0
15.4102 2.99905 0
15.4113 3.99807 0
15.4083 4.99675 0
12.4103 4.94166 0
9.40882 4.89843 0
6.40375 4.89852 0
3.39901 4.94234 0
0.397757 4.99832 0
0.393367 3.99934 0
0.393076 3 0
0.395216 2.00034 0
0.398104 1.00034 0
0.4 0 0
      </DataArray>
    </Points>
    <Cells>
      <DataArray type="Int32" Name="connectivity" format="ascii">
0 1
1 2
2 3
3 4
4 5
5 6
6 7
7 8
8 9
9 10
10 11
11 12
12 13
13 14
14 15
15 16
16 17
17 18
18 19
19 20
20 21
21 22
22 23
23 24
24 25
25 26
26 27
27 28
28 29
29 30
30 31
31 32
32 33
33 34
34 35
0 35
0 34
1 34
1 33
2 33
2 32
3 32
3 31
4 31
4 30
5 30
5 7
30 7
30 8
29 8
29 9
28 9
28 10
27 10
27 11
26 11
26 12
25 12
25 13
25 14
24 14
24 15
23 15
23 16
22 16
22 17
21 17
21 18
20 18
      </DataArray>
      <DataArray type="Int32" Name="offsets" format="ascii">
2
4
6
8
10
12
14
16
18
20
22
24
26
28
30
32
34
36
38
40
42
44
46
48
50
52
54
56
58
60
62
64
66
68
70
72
74
76
78
80
82
84
86
88
90
92
94
96
98
100
102
104
106
108
110
112
114
116
118
120
122
124
126
128
130
132
134
136
138
      </DataArray>
      <DataArray type="UInt8" Name="types" format="ascii">
4
4
4
4
4
4
4
4
4
4
4
4
4
4
4
4
4
4
4
4
4
4
4
4
4
4
4
4
4
4
4
4
4
4
4
4
4
4
4
4
4
4
4
4
4
4
4
4
4
4
4
4
4
4
4
4
4
4
4
4
4
4
4
4
4
4
4
4
4
      </DataArray>
    </Cells>
    <PointData>
      <DataArray type="Float64" NumberOfComponents="3" Name="Displacement" format="ascii">
0 0 0
-0.00194911 -0.000371951 0
-0.004837 -0.000409791 0
-0.00697663 -0.000110501 0
-0.0066825 0.000523619 0
-0.00207262 0.00147607 0
0.0112546 0.00138726 0
0.0112333 -0.00273755 0
0.0118931 -0.057381 0
0.00940791 -0.101518 0
0.003913 -0.101976 0
-0.00189283 -0.0587814 0
-0.00457323 -0.00370408 0
-0.00444463 0.000562898 0
0.00819923 -0.000302167 0
0.011198 -0.000912895 0
0.0101881 -0.00119383 0
0.0068497 -0.00113337 0
0.00287205 -0.000733178 0
0 0 0
0 0 0
0.00292674 2.2822e-05 0
0.00690452 -0.000295256 0
0.0102423 -0.000948134 0
0.0112538 -0.00193142 0
0.0082667 -0.00325091 0
0.0102959 -0.0583369 0
0.00882376 -0.101572 0
0.00375252 -0.101478 0
-0.000994828 -0.0576632 0
-0.00224298 -0.00167679 0
-0.00663258 -0.000664711 0
-0.00692362 3.43945e-06 0
-0.00478402 0.00033774 0
-0.00189609 0.00033759 0
0 0 0
      </DataArray> 
      <DataArray type="Float64" NumberOfComponents="3" Name="Velocity" format="ascii">
0 0 0
0 0 0
0 0 0
0 0 0
0 0 0
0 0 0
0 0 0
0 0 0
0 0 0
0 0 0
0 0 0
0 0 0
0 0 0
0 0 0
0 0 0
0 0 0
0 0 0
0 0 0
0 0 0
0 0 0
0 0 0
0 0 0
0 0 0
0 0 0
0 0 0
0 0 0
0 0 0
0 0 0
0 0 0
0 0 0
0 0 0
0 0 0
0 0 0
0 0 0
0 0 0
0 0 0
      </DataArray> 
      <DataArray type="Float64" NumberOfComponents="3" Name="Acceleration" format="ascii">
0 0 0
0 0 0
0 0 0
0 0 0
0 0 0
0 0 0
0 0 0
0 0 0
0 0 0
0 0 0
0 0 0
0 0 0
0 0 0
0 0 0
0 0 0
0 0 0
0 0 0
0 0 0
0 0 0
0 0 0
0 0 0
0 0 0
0 0 0
0 0 0
0 0 0
0 0 0
0 0 0
0 0 0
0 0 0
0 0 0
0 0 0
0 0 0
0 0 0
0 0 0
0 0 0
0 0 0
      </DataArray> 
    </PointData>
    <CellData>
    </CellData>
  </Piece>
  </UnstructuredGrid>
</VTKFile>
