<?xml version="1.0"?>
<VTKFile type="UnstructuredGrid">
  <UnstructuredGrid>
  <Piece NumberOfPoints="36"  NumberOfCells="69">
    <Points>
      <DataArray type="Float64" NumberOfComponents="3" format="ascii">
0 0 0
-0.00244717 0.999534 0
-0.00606035 1.99949 0
-0.00870862 2.99987 0
-0.0082637 4.00067 0
-0.00235339 5.00187 0
0.0145527 6.00173 0
0.414518 5.99649 0
3.41518 5.92721 0
6.41192 5.87129 0
9.40495 5.87073 0
12.3975 5.92545 0
15.3939 5.99527 0
15.7941 6.00069 0
15.8101 4.99963 0
15.814 3.99886 0
15.8128 2.9985 0
15.8086 1.99857 0
15.8036 0.999076 0
15.8 0 0
15.4 0 0
15.4037 1.00002 0
15.4087 1.99962 0
15.4129 2.99879 0
15.4141 3.99754 0
15.4102 4.99587 0
12.4129 4.92604 0
9.41117 4.87125 0
6.40475 4.87136 0
3.39884 4.92688 0
0.397426 4.99786 0
0.391798 3.99914 0
0.391358 2.99999 0
0.394006 2.00042 0
0.397619 1.00042 0
0.4 0 0
      </DataArray>
    </Points>
    <Cells>
      <DataArray type="Int32" Name="connectivity" format="ascii">
0 1
1 2
2 3
3 4
4 5
5 6
6 7
7 8
8 9
9 10
10 11
11 12
12 13
13 14
14 15
15 16
16 17
17 18
18 19
19 20
20 21
21 22
22 23
23 24
24 25
25 26
26 27
27 28
28 29
29 30
30 31
31 32
32 33
33 34
34 35
0 35
0 34
1 34
1 33
2 33
2 32
3 32
3 31
4 31
4 30
5 30
5 7
30 7
30 8
29 8
29 9
28 9
28 10
27 10
27 11
26 11
26 12
25 12
25 13
25 14
24 14
24 15
23 15
23 16
22 16
22 17
21 17
21 18
20 18
      </DataArray>
      <DataArray type="Int32" Name="offsets" format="ascii">
2
4
6
8
10
12
14
16
18
20
22
24
26
28
30
32
34
36
38
40
42
44
46
48
50
52
54
56
58
60
62
64
66
68
70
72
74
76
78
80
82
84
86
88
90
92
94
96
98
100
102
104
106
108
110
112
114
116
118
120
122
124
126
128
130
132
134
136
138
      </DataArray>
      <DataArray type="UInt8" Name="types" format="ascii">
4
4
4
4
4
4
4
4
4
4
4
4
4
4
4
4
4
4
4
4
4
4
4
4
4
4
4
4
4
4
4
4
4
4
4
4
4
4
4
4
4
4
4
4
4
4
4
4
4
4
4
4
4
4
4
4
4
4
4
4
4
4
4
4
4
4
4
4
4
      </DataArray>
    </Cells>
    <PointData>
      <DataArray type="Float64" NumberOfComponents="3" Name="Displacement" format="ascii">
0 0 0
-0.00244717 -0.000466362 0
-0.00606035 -0.000511729 0
-0.00870862 -0.000131374 0
-0.0082637 0.000670823 0
-0.00235339 0.00186824 0
0.0145527 0.00172532 0
0.0145183 -0.00351483 0
0.0151792 -0.0727949 0
0.0119176 -0.128706 0
0.0049495 -0.129272 0
-0.00251625 -0.0745484 0
-0.00608708 -0.00473288 0
-0.00593273 0.000691111 0
0.010118 -0.000373071 0
0.0139901 -0.00114459 0
0.0127817 -0.00150253 0
0.00861256 -0.00142805 0
0.00361691 -0.000923653 0
0 0 0
0 0 0
0.0036862 2.35228e-05 0
0.00868206 -0.000384613 0
0.0128502 -0.0012147 0
0.0140613 -0.00245987 0
0.010208 -0.00412962 0
0.012939 -0.0739594 0
0.0111705 -0.128748 0
0.00474585 -0.128641 0
-0.00116074 -0.0731226 0
-0.002574 -0.00214286 0
-0.00820214 -0.000858512 0
-0.00864199 -1.11321e-05 0
-0.00599372 0.000415594 0
-0.0023805 0.00042088 0
0 0 0
      </DataArray> 
      <DataArray type="Float64" NumberOfComponents="3" Name="Velocity" format="ascii">
0 0 0
0 0 0
0 0 0
0 0 0
0 0 0
0 0 0
0 0 0
0 0 0
0 0 0
0 0 0
0 0 0
0 0 0
0 0 0
0 0 0
0 0 0
0 0 0
0 0 0
0 0 0
0 0 0
0 0 0
0 0 0
0 0 0
0 0 0
0 0 0
0 0 0
0 0 0
0 0 0
0 0 0
0 0 0
0 0 0
0 0 0
0 0 0
0 0 0
0 0 0
0 0 0
0 0 0
      </DataArray> 
      <DataArray type="Float64" NumberOfComponents="3" Name="Acceleration" format="ascii">
0 0 0
0 0 0
0 0 0
0 0 0
0 0 0
0 0 0
0 0 0
0 0 0
0 0 0
0 0 0
0 0 0
0 0 0
0 0 0
0 0 0
0 0 0
0 0 0
0 0 0
0 0 0
0 0 0
0 0 0
0 0 0
0 0 0
0 0 0
0 0 0
0 0 0
0 0 0
0 0 0
0 0 0
0 0 0
0 0 0
0 0 0
0 0 0
0 0 0
0 0 0
0 0 0
0 0 0
      </DataArray> 
    </PointData>
    <CellData>
    </CellData>
  </Piece>
  </UnstructuredGrid>
</VTKFile>
