<?xml version="1.0"?>
<VTKFile type="UnstructuredGrid">
  <UnstructuredGrid>
  <Piece NumberOfPoints="36"  NumberOfCells="69">
    <Points>
      <DataArray type="Float64" NumberOfComponents="3" format="ascii">
0 0 0
-0.00310631 0.999409 0
-0.00767017 1.99936 0
-0.0109644 2.99985 0
-0.0102664 4.00088 0
-0.00254903 5.0024 0
0.0192145 6.00216 0
0.419157 5.9954 0
3.4197 5.90628 0
6.41531 5.83444 0
9.40635 5.83374 0
12.3966 5.90406 0
15.3917 5.99385 0
15.7919 6.00085 0
15.8125 4.99954 0
15.8176 3.99855 0
15.8162 2.99809 0
15.811 1.99818 0
15.8046 0.998822 0
15.8 0 0
15.4 0 0
15.4047 1.00002 0
15.411 1.99949 0
15.4163 2.99842 0
15.4177 3.99682 0
15.4127 4.99467 0
12.4164 4.90487 0
9.41434 4.83443 0
6.40608 4.83455 0
3.39868 4.90591 0
0.397159 4.99721 0
0.38981 3.99887 0
0.38912 2.99996 0
0.392415 2.00051 0
0.396979 1.00053 0
0.4 0 0
      </DataArray>
    </Points>
    <Cells>
      <DataArray type="Int32" Name="connectivity" format="ascii">
0 1
1 2
2 3
3 4
4 5
5 6
6 7
7 8
8 9
9 10
10 11
11 12
12 13
13 14
14 15
15 16
16 17
17 18
18 19
19 20
20 21
21 22
22 23
23 24
24 25
25 26
26 27
27 28
28 29
29 30
30 31
31 32
32 33
33 34
34 35
0 35
0 34
1 34
1 33
2 33
2 32
3 32
3 31
4 31
4 30
5 30
5 7
30 7
30 8
29 8
29 9
28 9
28 10
27 10
27 11
26 11
26 12
25 12
25 13
25 14
24 14
24 15
23 15
23 16
22 16
22 17
21 17
21 18
20 18
      </DataArray>
      <DataArray type="Int32" Name="offsets" format="ascii">
2
4
6
8
10
12
14
16
18
20
22
24
26
28
30
32
34
36
38
40
42
44
46
48
50
52
54
56
58
60
62
64
66
68
70
72
74
76
78
80
82
84
86
88
90
92
94
96
98
100
102
104
106
108
110
112
114
116
118
120
122
124
126
128
130
132
134
136
138
      </DataArray>
      <DataArray type="UInt8" Name="types" format="ascii">
4
4
4
4
4
4
4
4
4
4
4
4
4
4
4
4
4
4
4
4
4
4
4
4
4
4
4
4
4
4
4
4
4
4
4
4
4
4
4
4
4
4
4
4
4
4
4
4
4
4
4
4
4
4
4
4
4
4
4
4
4
4
4
4
4
4
4
4
4
      </DataArray>
    </Cells>
    <PointData>
      <DataArray type="Float64" NumberOfComponents="3" Name="Displacement" format="ascii">
0 0 0
-0.00310631 -0.000590788 0
-0.00767017 -0.000644467 0
-0.0109644 -0.000153497 0
-0.0102664 0.000875291 0
-0.00254903 0.00239759 0
0.0192145 0.00216073 0
0.0191573 -0.00459836 0
0.019701 -0.0937176 0
0.015313 -0.165556 0
0.0063471 -0.166261 0
-0.00343916 -0.0959351 0
-0.00833321 -0.00615214 0
-0.00814997 0.000849636 0
0.0125323 -0.000462227 0
0.0176356 -0.00144955 0
0.0162067 -0.00191309 0
0.0109541 -0.0018213 0
0.00461033 -0.00117783 0
0 0 0
0 0 0
0.00469936 2.08797e-05 0
0.0110434 -0.000512441 0
0.0162945 -0.00158412 0
0.017728 -0.00318323 0
0.012656 -0.00532588 0
0.0164453 -0.0951327 0
0.0143407 -0.165567 0
0.00608481 -0.165449 0
-0.00131807 -0.0940868 0
-0.00284095 -0.00278619 0
-0.0101903 -0.00113162 0
-0.0108797 -4.10441e-05 0
-0.00758538 0.000512812 0
-0.00302148 0.000529038 0
0 0 0
      </DataArray> 
      <DataArray type="Float64" NumberOfComponents="3" Name="Velocity" format="ascii">
0 0 0
0 0 0
0 0 0
0 0 0
0 0 0
0 0 0
0 0 0
0 0 0
0 0 0
0 0 0
0 0 0
0 0 0
0 0 0
0 0 0
0 0 0
0 0 0
0 0 0
0 0 0
0 0 0
0 0 0
0 0 0
0 0 0
0 0 0
0 0 0
0 0 0
0 0 0
0 0 0
0 0 0
0 0 0
0 0 0
0 0 0
0 0 0
0 0 0
0 0 0
0 0 0
0 0 0
      </DataArray> 
      <DataArray type="Float64" NumberOfComponents="3" Name="Acceleration" format="ascii">
0 0 0
0 0 0
0 0 0
0 0 0
0 0 0
0 0 0
0 0 0
0 0 0
0 0 0
0 0 0
0 0 0
0 0 0
0 0 0
0 0 0
0 0 0
0 0 0
0 0 0
0 0 0
0 0 0
0 0 0
0 0 0
0 0 0
0 0 0
0 0 0
0 0 0
0 0 0
0 0 0
0 0 0
0 0 0
0 0 0
0 0 0
0 0 0
0 0 0
0 0 0
0 0 0
0 0 0
      </DataArray> 
    </PointData>
    <CellData>
    </CellData>
  </Piece>
  </UnstructuredGrid>
</VTKFile>
