<?xml version="1.0"?>
<VTKFile type="UnstructuredGrid">
  <UnstructuredGrid>
  <Piece NumberOfPoints="36"  NumberOfCells="69">
    <Points>
      <DataArray type="Float64" NumberOfComponents="3" format="ascii">
0 0 0
-0.00116703 0.999777 0
-0.00290509 1.99975 0
-0.00421322 2.99993 0
-0.00409096 4.0003 0
-0.00141823 5.00087 0
0.00643734 6.00084 0
0.40643 5.99842 0
3.40694 5.96618 0
6.40556 5.94011 0
9.40232 5.93983 0
12.399 5.96534 0
15.3975 5.99784 0
15.7976 6.00035 0
15.805 4.99981 0
15.8068 3.99945 0
15.8061 2.99929 0
15.8041 1.99933 0
15.8017 0.999563 0
15.8 0 0
15.4 0 0
15.4017 1.00002 0
15.4041 1.99983 0
15.4061 2.99945 0
15.4068 3.99887 0
15.4051 4.99809 0
12.4062 4.96558 0
9.40522 4.94006 0
6.40222 4.94012 0
3.39934 4.96599 0
0.398485 4.99902 0
0.39594 3.99962 0
0.395818 3.00001 0
0.397127 2.00021 0
0.398865 1.0002 0
0.4 0 0
      </DataArray>
    </Points>
    <Cells>
      <DataArray type="Int32" Name="connectivity" format="ascii">
0 1
1 2
2 3
3 4
4 5
5 6
6 7
7 8
8 9
9 10
10 11
11 12
12 13
13 14
14 15
15 16
16 17
17 18
18 19
19 20
20 21
21 22
22 23
23 24
24 25
25 26
26 27
27 28
28 29
29 30
30 31
31 32
32 33
33 34
34 35
0 35
0 34
1 34
1 33
2 33
2 32
3 32
3 31
4 31
4 30
5 30
5 7
30 7
30 8
29 8
29 9
28 9
28 10
27 10
27 11
26 11
26 12
25 12
25 13
25 14
24 14
24 15
23 15
23 16
22 16
22 17
21 17
21 18
20 18
      </DataArray>
      <DataArray type="Int32" Name="offsets" format="ascii">
2
4
6
8
10
12
14
16
18
20
22
24
26
28
30
32
34
36
38
40
42
44
46
48
50
52
54
56
58
60
62
64
66
68
70
72
74
76
78
80
82
84
86
88
90
92
94
96
98
100
102
104
106
108
110
112
114
116
118
120
122
124
126
128
130
132
134
136
138
      </DataArray>
      <DataArray type="UInt8" Name="types" format="ascii">
4
4
4
4
4
4
4
4
4
4
4
4
4
4
4
4
4
4
4
4
4
4
4
4
4
4
4
4
4
4
4
4
4
4
4
4
4
4
4
4
4
4
4
4
4
4
4
4
4
4
4
4
4
4
4
4
4
4
4
4
4
4
4
4
4
4
4
4
4
      </DataArray>
    </Cells>
    <PointData>
      <DataArray type="Float64" NumberOfComponents="3" Name="Displacement" format="ascii">
0 0 0
-0.00116703 -0.000223126 0
-0.00290509 -0.000247248 0
-0.00421322 -7.12724e-05 0
-0.00409096 0.00030406 0
-0.00141823 0.000873048 0
0.00643734 0.000842192 0
0.00642998 -0.00158369 0
0.00694449 -0.0338189 0
0.00555755 -0.0598913 0
0.00231685 -0.0601711 0
-0.00103341 -0.0346605 0
-0.00249172 -0.00215902 0
-0.00240973 0.000348132 0
0.00503486 -0.00018531 0
0.00675388 -0.000547475 0
0.00610678 -0.000711981 0
0.00409219 -0.000674843 0
0.00171182 -0.000436719 0
0 0 0
0 0 0
0.00174411 1.73446e-05 0
0.00412453 -0.000166762 0
0.0061389 -0.000550166 0
0.00678652 -0.00113127 0
0.00507154 -0.00191203 0
0.00615581 -0.0344165 0
0.00521749 -0.0599412 0
0.00222231 -0.0598775 0
-0.00065864 -0.0340067 0
-0.00151548 -0.000977161 0
-0.00406032 -0.000380804 0
-0.00418153 1.31984e-05 0
-0.00287342 0.000208312 0
-0.00113535 0.000204268 0
0 0 0
      </DataArray> 
      <DataArray type="Float64" NumberOfComponents="3" Name="Velocity" format="ascii">
0 0 0
0 0 0
0 0 0
0 0 0
0 0 0
0 0 0
0 0 0
0 0 0
0 0 0
0 0 0
0 0 0
0 0 0
0 0 0
0 0 0
0 0 0
0 0 0
0 0 0
0 0 0
0 0 0
0 0 0
0 0 0
0 0 0
0 0 0
0 0 0
0 0 0
0 0 0
0 0 0
0 0 0
0 0 0
0 0 0
0 0 0
0 0 0
0 0 0
0 0 0
0 0 0
0 0 0
      </DataArray> 
      <DataArray type="Float64" NumberOfComponents="3" Name="Acceleration" format="ascii">
0 0 0
0 0 0
0 0 0
0 0 0
0 0 0
0 0 0
0 0 0
0 0 0
0 0 0
0 0 0
0 0 0
0 0 0
0 0 0
0 0 0
0 0 0
0 0 0
0 0 0
0 0 0
0 0 0
0 0 0
0 0 0
0 0 0
0 0 0
0 0 0
0 0 0
0 0 0
0 0 0
0 0 0
0 0 0
0 0 0
0 0 0
0 0 0
0 0 0
0 0 0
0 0 0
0 0 0
      </DataArray> 
    </PointData>
    <CellData>
    </CellData>
  </Piece>
  </UnstructuredGrid>
</VTKFile>
