<?xml version="1.0"?>
<VTKFile type="UnstructuredGrid">
  <UnstructuredGrid>
  <Piece NumberOfPoints="36"  NumberOfCells="69">
    <Points>
      <DataArray type="Float64" NumberOfComponents="3" format="ascii">
0 0 0
-0.000754028 0.999856 0
-0.00187989 1.99984 0
-0.00273386 2.99995 0
-0.00267242 4.00019 0
-0.000974123 5.00056 0
0.00406079 6.00055 0
0.404058 5.99899 0
3.40443 5.97833 0
6.40357 5.9616 0
9.40149 5.96141 0
12.3994 5.97778 0
15.3985 5.99862 0
15.7985 6.00023 0
15.8033 4.99988 0
15.8044 3.99965 0
15.8039 2.99954 0
15.8026 1.99957 0
15.8011 0.999719 0
15.8 0 0
15.4 0 0
15.4011 1.00001 0
15.4027 1.9999 0
15.404 2.99965 0
15.4044 3.99928 0
15.4033 4.99878 0
12.404 4.97793 0
9.40335 4.96156 0
6.40143 4.9616 0
3.39955 4.9782 0
0.398965 4.99938 0
0.397348 3.99976 0
0.397287 3.00001 0
0.398141 2.00014 0
0.399266 1.00013 0
0.4 0 0
      </DataArray>
    </Points>
    <Cells>
      <DataArray type="Int32" Name="connectivity" format="ascii">
0 1
1 2
2 3
3 4
4 5
5 6
6 7
7 8
8 9
9 10
10 11
11 12
12 13
13 14
14 15
15 16
16 17
17 18
18 19
19 20
20 21
21 22
22 23
23 24
24 25
25 26
26 27
27 28
28 29
29 30
30 31
31 32
32 33
33 34
34 35
0 35
0 34
1 34
1 33
2 33
2 32
3 32
3 31
4 31
4 30
5 30
5 7
30 7
30 8
29 8
29 9
28 9
28 10
27 10
27 11
26 11
26 12
25 12
25 13
25 14
24 14
24 15
23 15
23 16
22 16
22 17
21 17
21 18
20 18
      </DataArray>
      <DataArray type="Int32" Name="offsets" format="ascii">
2
4
6
8
10
12
14
16
18
20
22
24
26
28
30
32
34
36
38
40
42
44
46
48
50
52
54
56
58
60
62
64
66
68
70
72
74
76
78
80
82
84
86
88
90
92
94
96
98
100
102
104
106
108
110
112
114
116
118
120
122
124
126
128
130
132
134
136
138
      </DataArray>
      <DataArray type="UInt8" Name="types" format="ascii">
4
4
4
4
4
4
4
4
4
4
4
4
4
4
4
4
4
4
4
4
4
4
4
4
4
4
4
4
4
4
4
4
4
4
4
4
4
4
4
4
4
4
4
4
4
4
4
4
4
4
4
4
4
4
4
4
4
4
4
4
4
4
4
4
4
4
4
4
4
      </DataArray>
    </Cells>
    <PointData>
      <DataArray type="Float64" NumberOfComponents="3" Name="Displacement" format="ascii">
0 0 0
-0.000754028 -0.000144291 0
-0.00187989 -0.000160335 0
-0.00273386 -4.76738e-05 0
-0.00267242 0.000193402 0
-0.000974123 0.000560556 0
0.00406079 0.00054788 0
0.00405777 -0.00100516 0
0.00442914 -0.0216744 0
0.00356612 -0.0384039 0
0.00148845 -0.0385865 0
-0.000634992 -0.0222191 0
-0.00152937 -0.00137573 0
-0.0014748 0.000228542 0
0.00329398 -0.000121125 0
0.00437967 -0.000353937 0
0.00394775 -0.000459021 0
0.002641 -0.000434751 0
0.00110346 -0.000281413 0
0 0 0
0 0 0
0.00112417 1.24142e-05 0
0.00266173 -0.000104443 0
0.00396839 -0.000349679 0
0.00440051 -0.000722624 0
0.00331648 -0.00122407 0
0.00397439 -0.0220687 0
0.00334957 -0.0384419 0
0.00142786 -0.0383983 0
-0.000446119 -0.0218019 0
-0.00103541 -0.000622597 0
-0.00265239 -0.000240392 0
-0.0027134 1.22014e-05 0
-0.00185944 0.0001366 0
-0.000733576 0.000132681 0
0 0 0
      </DataArray> 
      <DataArray type="Float64" NumberOfComponents="3" Name="Velocity" format="ascii">
0 0 0
0 0 0
0 0 0
0 0 0
0 0 0
0 0 0
0 0 0
0 0 0
0 0 0
0 0 0
0 0 0
0 0 0
0 0 0
0 0 0
0 0 0
0 0 0
0 0 0
0 0 0
0 0 0
0 0 0
0 0 0
0 0 0
0 0 0
0 0 0
0 0 0
0 0 0
0 0 0
0 0 0
0 0 0
0 0 0
0 0 0
0 0 0
0 0 0
0 0 0
0 0 0
0 0 0
      </DataArray> 
      <DataArray type="Float64" NumberOfComponents="3" Name="Acceleration" format="ascii">
0 0 0
0 0 0
0 0 0
0 0 0
0 0 0
0 0 0
0 0 0
0 0 0
0 0 0
0 0 0
0 0 0
0 0 0
0 0 0
0 0 0
0 0 0
0 0 0
0 0 0
0 0 0
0 0 0
0 0 0
0 0 0
0 0 0
0 0 0
0 0 0
0 0 0
0 0 0
0 0 0
0 0 0
0 0 0
0 0 0
0 0 0
0 0 0
0 0 0
0 0 0
0 0 0
0 0 0
      </DataArray> 
    </PointData>
    <CellData>
    </CellData>
  </Piece>
  </UnstructuredGrid>
</VTKFile>
