<?xml version="1.0"?>
<VTKFile type="UnstructuredGrid">
  <UnstructuredGrid>
  <Piece NumberOfPoints="36"  NumberOfCells="69">
    <Points>
      <DataArray type="Float64" NumberOfComponents="3" format="ascii">
0 0 0
-0.00308235 0.999414 0
-0.00761185 1.99936 0
-0.0108831 2.99985 0
-0.0101955 4.00087 0
-0.0025456 5.00238 0
0.0190388 6.00215 0
0.418983 5.99544 0
3.41953 5.90705 0
6.41519 5.8358 0
9.4063 5.8351 0
12.3966 5.90485 0
15.3918 5.9939 0
15.7919 6.00084 0
15.8124 4.99954 0
15.8175 3.99856 0
15.8161 2.9981 0
15.8109 1.99819 0
15.8046 0.998831 0
15.8 0 0
15.4 0 0
15.4047 1.00002 0
15.411 1.99949 0
15.4162 2.99843 0
15.4176 3.99684 0
15.4126 4.99472 0
12.4163 4.90565 0
9.41422 4.83579 0
6.40604 4.83591 0
3.39869 4.90669 0
0.397165 4.99724 0
0.38988 3.99888 0
0.389201 2.99996 0
0.392472 2.00051 0
0.397002 1.00053 0
0.4 0 0
      </DataArray>
    </Points>
    <Cells>
      <DataArray type="Int32" Name="connectivity" format="ascii">
0 1
1 2
2 3
3 4
4 5
5 6
6 7
7 8
8 9
9 10
10 11
11 12
12 13
13 14
14 15
15 16
16 17
17 18
18 19
19 20
20 21
21 22
22 23
23 24
24 25
25 26
26 27
27 28
28 29
29 30
30 31
31 32
32 33
33 34
34 35
0 35
0 34
1 34
1 33
2 33
2 32
3 32
3 31
4 31
4 30
5 30
5 7
30 7
30 8
29 8
29 9
28 9
28 10
27 10
27 11
26 11
26 12
25 12
25 13
25 14
24 14
24 15
23 15
23 16
22 16
22 17
21 17
21 18
20 18
      </DataArray>
      <DataArray type="Int32" Name="offsets" format="ascii">
2
4
6
8
10
12
14
16
18
20
22
24
26
28
30
32
34
36
38
40
42
44
46
48
50
52
54
56
58
60
62
64
66
68
70
72
74
76
78
80
82
84
86
88
90
92
94
96
98
100
102
104
106
108
110
112
114
116
118
120
122
124
126
128
130
132
134
136
138
      </DataArray>
      <DataArray type="UInt8" Name="types" format="ascii">
4
4
4
4
4
4
4
4
4
4
4
4
4
4
4
4
4
4
4
4
4
4
4
4
4
4
4
4
4
4
4
4
4
4
4
4
4
4
4
4
4
4
4
4
4
4
4
4
4
4
4
4
4
4
4
4
4
4
4
4
4
4
4
4
4
4
4
4
4
      </DataArray>
    </Cells>
    <PointData>
      <DataArray type="Float64" NumberOfComponents="3" Name="Displacement" format="ascii">
0 0 0
-0.00308235 -0.000586277 0
-0.00761185 -0.000639688 0
-0.0108831 -0.00015281 0
-0.0101955 0.000867655 0
-0.0025456 0.00237813 0
0.0190388 0.00214516 0
0.0189826 -0.00455782 0
0.019533 -0.0929461 0
0.015188 -0.164199 0
0.00629575 -0.164899 0
-0.00340358 -0.0951469 0
-0.0082465 -0.00609935 0
-0.0080642 0.000844108 0
0.0124472 -0.000459085 0
0.0175041 -0.0014385 0
0.0160823 -0.00189813 0
0.0108688 -0.00180694 0
0.00457406 -0.00116855 0
0 0 0
0 0 0
0.00466237 2.10501e-05 0
0.0109574 -0.000507596 0
0.0161694 -0.00157034 0
0.0175958 -0.00315644 0
0.0125695 -0.0052817 0
0.0163176 -0.0943527 0
0.0142241 -0.164211 0
0.00603563 -0.164093 0
-0.00131365 -0.0933142 0
-0.00283483 -0.00276225 0
-0.0101199 -0.00112135 0
-0.0107991 -3.97366e-05 0
-0.00752772 0.000509399 0
-0.00299818 0.00052515 0
0 0 0
      </DataArray> 
      <DataArray type="Float64" NumberOfComponents="3" Name="Velocity" format="ascii">
0 0 0
0 0 0
0 0 0
0 0 0
0 0 0
0 0 0
0 0 0
0 0 0
0 0 0
0 0 0
0 0 0
0 0 0
0 0 0
0 0 0
0 0 0
0 0 0
0 0 0
0 0 0
0 0 0
0 0 0
0 0 0
0 0 0
0 0 0
0 0 0
0 0 0
0 0 0
0 0 0
0 0 0
0 0 0
0 0 0
0 0 0
0 0 0
0 0 0
0 0 0
0 0 0
0 0 0
      </DataArray> 
      <DataArray type="Float64" NumberOfComponents="3" Name="Acceleration" format="ascii">
0 0 0
0 0 0
0 0 0
0 0 0
0 0 0
0 0 0
0 0 0
0 0 0
0 0 0
0 0 0
0 0 0
0 0 0
0 0 0
0 0 0
0 0 0
0 0 0
0 0 0
0 0 0
0 0 0
0 0 0
0 0 0
0 0 0
0 0 0
0 0 0
0 0 0
0 0 0
0 0 0
0 0 0
0 0 0
0 0 0
0 0 0
0 0 0
0 0 0
0 0 0
0 0 0
0 0 0
      </DataArray> 
    </PointData>
    <CellData>
    </CellData>
  </Piece>
  </UnstructuredGrid>
</VTKFile>
