<?xml version="1.0"?>
<VTKFile type="UnstructuredGrid">
  <UnstructuredGrid>
  <Piece NumberOfPoints="36"  NumberOfCells="69">
    <Points>
      <DataArray type="Float64" NumberOfComponents="3" format="ascii">
0 0 0
-0.00172553 0.999671 0
-0.00428603 1.99964 0
-0.00619192 2.9999 0
-0.00595478 4.00046 0
-0.00191142 5.0013 0
0.00983355 6.00123 0
0.409817 5.9976 0
3.41045 5.94943 0
6.4083 5.91051 0
9.40345 5.9101 0
12.3984 5.94819 0
15.3961 5.99675 0
15.7962 6.0005 0
15.8073 4.99973 0
15.8099 3.99919 0
15.809 2.99894 0
15.8061 1.999 0
15.8025 0.999352 0
15.8 0 0
15.4 0 0
15.4026 1.00002 0
15.4061 1.99974 0
15.4091 2.99917 0
15.41 3.9983 0
15.4074 4.99714 0
12.4091 4.94858 0
9.40778 4.91046 0
6.40331 4.91054 0
3.39909 4.94917 0
0.39794 4.99853 0
0.39409 3.99942 0
0.393855 3.00001 0
0.395761 2.0003 0
0.398321 1.0003 0
0.4 0 0
      </DataArray>
    </Points>
    <Cells>
      <DataArray type="Int32" Name="connectivity" format="ascii">
0 1
1 2
2 3
3 4
4 5
5 6
6 7
7 8
8 9
9 10
10 11
11 12
12 13
13 14
14 15
15 16
16 17
17 18
18 19
19 20
20 21
21 22
22 23
23 24
24 25
25 26
26 27
27 28
28 29
29 30
30 31
31 32
32 33
33 34
34 35
0 35
0 34
1 34
1 33
2 33
2 32
3 32
3 31
4 31
4 30
5 30
5 7
30 7
30 8
29 8
29 9
28 9
28 10
27 10
27 11
26 11
26 12
25 12
25 13
25 14
24 14
24 15
23 15
23 16
22 16
22 17
21 17
21 18
20 18
      </DataArray>
      <DataArray type="Int32" Name="offsets" format="ascii">
2
4
6
8
10
12
14
16
18
20
22
24
26
28
30
32
34
36
38
40
42
44
46
48
50
52
54
56
58
60
62
64
66
68
70
72
74
76
78
80
82
84
86
88
90
92
94
96
98
100
102
104
106
108
110
112
114
116
118
120
122
124
126
128
130
132
134
136
138
      </DataArray>
      <DataArray type="UInt8" Name="types" format="ascii">
4
4
4
4
4
4
4
4
4
4
4
4
4
4
4
4
4
4
4
4
4
4
4
4
4
4
4
4
4
4
4
4
4
4
4
4
4
4
4
4
4
4
4
4
4
4
4
4
4
4
4
4
4
4
4
4
4
4
4
4
4
4
4
4
4
4
4
4
4
      </DataArray>
    </Cells>
    <PointData>
      <DataArray type="Float64" NumberOfComponents="3" Name="Displacement" format="ascii">
0 0 0
-0.00172553 -0.000329472 0
-0.00428603 -0.000363616 0
-0.00619192 -0.000100058 0
-0.00595478 0.000459455 0
-0.00191142 0.00130213 0
0.00983355 0.00123315 0
0.00981705 -0.00239961 0
0.0104528 -0.0505672 0
0.00829621 -0.0894883 0
0.00345289 -0.089896 0
-0.00163263 -0.0518083 0
-0.0039423 -0.00325384 0
-0.00382628 0.000503127 0
0.00731296 -0.000269421 0
0.00993472 -0.000808604 0
0.00902233 -0.00105571 0
0.00606009 -0.00100176 0
0.00253923 -0.000648104 0
0 0 0
0 0 0
0.00258745 2.17885e-05 0
0.00610842 -0.000257081 0
0.00907018 -0.000831849 0
0.0099838 -0.00169906 0
0.00737107 -0.00286317 0
0.00911107 -0.0514243 0
0.00778325 -0.0895436 0
0.00331148 -0.0894572 0
-0.000907896 -0.0508251 0
-0.00206018 -0.00147287 0
-0.00591026 -0.000581065 0
-0.00614501 7.83001e-06 0
-0.00423915 0.000301615 0
-0.00167862 0.000299785 0
0 0 0
      </DataArray> 
      <DataArray type="Float64" NumberOfComponents="3" Name="Velocity" format="ascii">
0 0 0
0 0 0
0 0 0
0 0 0
0 0 0
0 0 0
0 0 0
0 0 0
0 0 0
0 0 0
0 0 0
0 0 0
0 0 0
0 0 0
0 0 0
0 0 0
0 0 0
0 0 0
0 0 0
0 0 0
0 0 0
0 0 0
0 0 0
0 0 0
0 0 0
0 0 0
0 0 0
0 0 0
0 0 0
0 0 0
0 0 0
0 0 0
0 0 0
0 0 0
0 0 0
0 0 0
      </DataArray> 
      <DataArray type="Float64" NumberOfComponents="3" Name="Acceleration" format="ascii">
0 0 0
0 0 0
0 0 0
0 0 0
0 0 0
0 0 0
0 0 0
0 0 0
0 0 0
0 0 0
0 0 0
0 0 0
0 0 0
0 0 0
0 0 0
0 0 0
0 0 0
0 0 0
0 0 0
0 0 0
0 0 0
0 0 0
0 0 0
0 0 0
0 0 0
0 0 0
0 0 0
0 0 0
0 0 0
0 0 0
0 0 0
0 0 0
0 0 0
0 0 0
0 0 0
0 0 0
      </DataArray> 
    </PointData>
    <CellData>
    </CellData>
  </Piece>
  </UnstructuredGrid>
</VTKFile>
