<?xml version="1.0"?>
<VTKFile type="UnstructuredGrid">
  <UnstructuredGrid>
  <Piece NumberOfPoints="36"  NumberOfCells="69">
    <Points>
      <DataArray type="Float64" NumberOfComponents="3" format="ascii">
0 0 0
-0.00178155 0.99966 0
-0.00442419 1.99962 0
-0.00638895 2.9999 0
-0.00613814 4.00048 0
-0.00195381 5.00135 0
0.0101862 6.00127 0
0.410169 5.99752 0
3.41081 5.94773 0
6.40857 5.90751 0
9.40357 5.90709 0
12.3983 5.94645 0
15.3959 5.99663 0
15.796 6.00052 0
15.8075 4.99972 0
15.8103 3.99917 0
15.8093 2.99891 0
15.8063 1.99897 0
15.8026 0.999331 0
15.8 0 0
15.4 0 0
15.4027 1.00002 0
15.4063 1.99973 0
15.4094 2.99914 0
15.4103 3.99824 0
15.4076 4.99704 0
12.4094 4.94685 0
9.40804 4.90745 0
6.40342 4.90754 0
3.39907 4.94747 0
0.397892 4.99848 0
0.393908 3.9994 0
0.393659 3.00001 0
0.395624 2.00031 0
0.398267 1.00031 0
0.4 0 0
      </DataArray>
    </Points>
    <Cells>
      <DataArray type="Int32" Name="connectivity" format="ascii">
0 1
1 2
2 3
3 4
4 5
5 6
6 7
7 8
8 9
9 10
10 11
11 12
12 13
13 14
14 15
15 16
16 17
17 18
18 19
19 20
20 21
21 22
22 23
23 24
24 25
25 26
26 27
27 28
28 29
29 30
30 31
31 32
32 33
33 34
34 35
0 35
0 34
1 34
1 33
2 33
2 32
3 32
3 31
4 31
4 30
5 30
5 7
30 7
30 8
29 8
29 9
28 9
28 10
27 10
27 11
26 11
26 12
25 12
25 13
25 14
24 14
24 15
23 15
23 16
22 16
22 17
21 17
21 18
20 18
      </DataArray>
      <DataArray type="Int32" Name="offsets" format="ascii">
2
4
6
8
10
12
14
16
18
20
22
24
26
28
30
32
34
36
38
40
42
44
46
48
50
52
54
56
58
60
62
64
66
68
70
72
74
76
78
80
82
84
86
88
90
92
94
96
98
100
102
104
106
108
110
112
114
116
118
120
122
124
126
128
130
132
134
136
138
      </DataArray>
      <DataArray type="UInt8" Name="types" format="ascii">
4
4
4
4
4
4
4
4
4
4
4
4
4
4
4
4
4
4
4
4
4
4
4
4
4
4
4
4
4
4
4
4
4
4
4
4
4
4
4
4
4
4
4
4
4
4
4
4
4
4
4
4
4
4
4
4
4
4
4
4
4
4
4
4
4
4
4
4
4
      </DataArray>
    </Cells>
    <PointData>
      <DataArray type="Float64" NumberOfComponents="3" Name="Displacement" format="ascii">
0 0 0
-0.00178155 -0.000340121 0
-0.00442419 -0.000375209 0
-0.00638895 -0.000102734 0
-0.00613814 0.000475424 0
-0.00195381 0.00134559 0
0.0101862 0.0012719 0
0.0101686 -0.00248366 0
0.0108117 -0.0522685 0
0.00857392 -0.0924926 0
0.00356789 -0.0929129 0
-0.00169672 -0.0535495 0
-0.00409763 -0.003366 0
-0.0039784 0.000518229 0
0.00753644 -0.000277678 0
0.0102518 -0.000834751 0
0.0093145 -0.0010903 0
0.00625784 -0.0010347 0
0.00262254 -0.000669396 0
0 0 0
0 0 0
0.00267238 2.20883e-05 0
0.00630779 -0.000266536 0
0.00936394 -0.000860794 0
0.0103026 -0.001757 0
0.00759686 -0.00295995 0
0.00940785 -0.0531507 0
0.00804324 -0.0925477 0
0.00342172 -0.0924593 0
-0.000930384 -0.0525327 0
-0.00210792 -0.00152366 0
-0.00609226 -0.000601834 0
-0.00634051 6.85244e-06 0
-0.00437578 0.000310733 0
-0.00173311 0.000309282 0
0 0 0
      </DataArray> 
      <DataArray type="Float64" NumberOfComponents="3" Name="Velocity" format="ascii">
0 0 0
0 0 0
0 0 0
0 0 0
0 0 0
0 0 0
0 0 0
0 0 0
0 0 0
0 0 0
0 0 0
0 0 0
0 0 0
0 0 0
0 0 0
0 0 0
0 0 0
0 0 0
0 0 0
0 0 0
0 0 0
0 0 0
0 0 0
0 0 0
0 0 0
0 0 0
0 0 0
0 0 0
0 0 0
0 0 0
0 0 0
0 0 0
0 0 0
0 0 0
0 0 0
0 0 0
      </DataArray> 
      <DataArray type="Float64" NumberOfComponents="3" Name="Acceleration" format="ascii">
0 0 0
0 0 0
0 0 0
0 0 0
0 0 0
0 0 0
0 0 0
0 0 0
0 0 0
0 0 0
0 0 0
0 0 0
0 0 0
0 0 0
0 0 0
0 0 0
0 0 0
0 0 0
0 0 0
0 0 0
0 0 0
0 0 0
0 0 0
0 0 0
0 0 0
0 0 0
0 0 0
0 0 0
0 0 0
0 0 0
0 0 0
0 0 0
0 0 0
0 0 0
0 0 0
0 0 0
      </DataArray> 
    </PointData>
    <CellData>
    </CellData>
  </Piece>
  </UnstructuredGrid>
</VTKFile>
