<?xml version="1.0"?>
<VTKFile type="UnstructuredGrid">
  <UnstructuredGrid>
  <Piece NumberOfPoints="36"  NumberOfCells="69">
    <Points>
      <DataArray type="Float64" NumberOfComponents="3" format="ascii">
0 0 0
-0.00189334 0.999639 0
-0.00469968 1.9996 0
-0.0067813 2.99989 0
-0.006502 4.00051 0
-0.00203441 5.00143 0
0.0108967 6.00135 0
0.410877 5.99735 0
3.41153 5.94432 0
6.40913 5.90149 0
9.4038 5.90105 0
12.3982 5.94296 0
15.3956 5.99641 0
15.7957 6.00055 0
15.808 4.99971 0
15.8109 3.99911 0
15.8099 2.99884 0
15.8067 1.9989 0
15.8028 0.999288 0
15.8 0 0
15.4 0 0
15.4028 1.00002 0
15.4067 1.99971 0
15.4099 2.99908 0
15.4109 3.99813 0
15.408 4.99685 0
12.41 4.94339 0
9.40856 4.90144 0
6.40364 4.90153 0
3.39903 4.94405 0
0.397801 4.99837 0
0.393547 3.99936 0
0.39327 3 0
0.395352 2.00033 0
0.398158 1.00033 0
0.4 0 0
      </DataArray>
    </Points>
    <Cells>
      <DataArray type="Int32" Name="connectivity" format="ascii">
0 1
1 2
2 3
3 4
4 5
5 6
6 7
7 8
8 9
9 10
10 11
11 12
12 13
13 14
14 15
15 16
16 17
17 18
18 19
19 20
20 21
21 22
22 23
23 24
24 25
25 26
26 27
27 28
28 29
29 30
30 31
31 32
32 33
33 34
34 35
0 35
0 34
1 34
1 33
2 33
2 32
3 32
3 31
4 31
4 30
5 30
5 7
30 7
30 8
29 8
29 9
28 9
28 10
27 10
27 11
26 11
26 12
25 12
25 13
25 14
24 14
24 15
23 15
23 16
22 16
22 17
21 17
21 18
20 18
      </DataArray>
      <DataArray type="Int32" Name="offsets" format="ascii">
2
4
6
8
10
12
14
16
18
20
22
24
26
28
30
32
34
36
38
40
42
44
46
48
50
52
54
56
58
60
62
64
66
68
70
72
74
76
78
80
82
84
86
88
90
92
94
96
98
100
102
104
106
108
110
112
114
116
118
120
122
124
126
128
130
132
134
136
138
      </DataArray>
      <DataArray type="UInt8" Name="types" format="ascii">
4
4
4
4
4
4
4
4
4
4
4
4
4
4
4
4
4
4
4
4
4
4
4
4
4
4
4
4
4
4
4
4
4
4
4
4
4
4
4
4
4
4
4
4
4
4
4
4
4
4
4
4
4
4
4
4
4
4
4
4
4
4
4
4
4
4
4
4
4
      </DataArray>
    </Cells>
    <PointData>
      <DataArray type="Float64" NumberOfComponents="3" Name="Displacement" format="ascii">
0 0 0
-0.00189334 -0.000361361 0
-0.00469968 -0.000398296 0
-0.0067813 -0.000107956 0
-0.006502 0.000507506 0
-0.00203441 0.00143257 0
0.0108967 0.00134896 0
0.0108767 -0.00265263 0
0.0115319 -0.0556755 0
0.00912977 -0.0985074 0
0.00379794 -0.0989526 0
-0.00182682 -0.0570361 0
-0.00441309 -0.00359112 0
-0.00428757 0.000548115 0
0.00797958 -0.000294051 0
0.0108834 -0.000886897 0
0.00989736 -0.00115935 0
0.00665264 -0.0011005 0
0.00278895 -0.000711933 0
0 0 0
0 0 0
0.00284202 2.26051e-05 0
0.00670585 -0.000285623 0
0.00994998 -0.000918936 0
0.0109376 -0.00187318 0
0.00804468 -0.00315381 0
0.0100003 -0.056607 0
0.00856349 -0.0985617 0
0.00364224 -0.0984696 0
-0.000973851 -0.0559518 0
-0.00219932 -0.00162562 0
-0.00645342 -0.000643657 0
-0.00672982 4.6572e-06 0
-0.00464821 0.000328796 0
-0.00184185 0.000328184 0
0 0 0
      </DataArray> 
      <DataArray type="Float64" NumberOfComponents="3" Name="Velocity" format="ascii">
0 0 0
0 0 0
0 0 0
0 0 0
0 0 0
0 0 0
0 0 0
0 0 0
0 0 0
0 0 0
0 0 0
0 0 0
0 0 0
0 0 0
0 0 0
0 0 0
0 0 0
0 0 0
0 0 0
0 0 0
0 0 0
0 0 0
0 0 0
0 0 0
0 0 0
0 0 0
0 0 0
0 0 0
0 0 0
0 0 0
0 0 0
0 0 0
0 0 0
0 0 0
0 0 0
0 0 0
      </DataArray> 
      <DataArray type="Float64" NumberOfComponents="3" Name="Acceleration" format="ascii">
0 0 0
0 0 0
0 0 0
0 0 0
0 0 0
0 0 0
0 0 0
0 0 0
0 0 0
0 0 0
0 0 0
0 0 0
0 0 0
0 0 0
0 0 0
0 0 0
0 0 0
0 0 0
0 0 0
0 0 0
0 0 0
0 0 0
0 0 0
0 0 0
0 0 0
0 0 0
0 0 0
0 0 0
0 0 0
0 0 0
0 0 0
0 0 0
0 0 0
0 0 0
0 0 0
0 0 0
      </DataArray> 
    </PointData>
    <CellData>
    </CellData>
  </Piece>
  </UnstructuredGrid>
</VTKFile>
