<?xml version="1.0"?>
<VTKFile type="UnstructuredGrid">
  <UnstructuredGrid>
  <Piece NumberOfPoints="36"  NumberOfCells="69">
    <Points>
      <DataArray type="Float64" NumberOfComponents="3" format="ascii">
0 0 0
-0.00144416 0.999724 0
-0.00359113 1.99969 0
-0.00519829 2.99991 0
-0.00502384 4.00038 0
-0.0016788 5.00109 0
0.00809568 6.00104 0
0.408084 5.99802 0
3.40867 5.95792 0
6.40691 5.9255 0
9.40288 5.92516 0
12.3987 5.95688 0
15.3968 5.9973 0
15.7969 6.00043 0
15.8062 4.99977 0
15.8083 3.99932 0
15.8076 2.99912 0
15.8051 1.99916 0
15.8021 0.999459 0
15.8 0 0
15.4 0 0
15.4022 1.00002 0
15.4051 1.99979 0
15.4076 2.99931 0
15.4084 3.99859 0
15.4062 4.99762 0
12.4076 4.95719 0
9.40648 4.92545 0
6.40276 4.92552 0
3.39921 4.95769 0
0.398199 4.99878 0
0.395014 3.99952 0
0.394841 3.00001 0
0.396448 2.00026 0
0.398595 1.00025 0
0.4 0 0
      </DataArray>
    </Points>
    <Cells>
      <DataArray type="Int32" Name="connectivity" format="ascii">
0 1
1 2
2 3
3 4
4 5
5 6
6 7
7 8
8 9
9 10
10 11
11 12
12 13
13 14
14 15
15 16
16 17
17 18
18 19
19 20
20 21
21 22
22 23
23 24
24 25
25 26
26 27
27 28
28 29
29 30
30 31
31 32
32 33
33 34
34 35
0 35
0 34
1 34
1 33
2 33
2 32
3 32
3 31
4 31
4 30
5 30
5 7
30 7
30 8
29 8
29 9
28 9
28 10
27 10
27 11
26 11
26 12
25 12
25 13
25 14
24 14
24 15
23 15
23 16
22 16
22 17
21 17
21 18
20 18
      </DataArray>
      <DataArray type="Int32" Name="offsets" format="ascii">
2
4
6
8
10
12
14
16
18
20
22
24
26
28
30
32
34
36
38
40
42
44
46
48
50
52
54
56
58
60
62
64
66
68
70
72
74
76
78
80
82
84
86
88
90
92
94
96
98
100
102
104
106
108
110
112
114
116
118
120
122
124
126
128
130
132
134
136
138
      </DataArray>
      <DataArray type="UInt8" Name="types" format="ascii">
4
4
4
4
4
4
4
4
4
4
4
4
4
4
4
4
4
4
4
4
4
4
4
4
4
4
4
4
4
4
4
4
4
4
4
4
4
4
4
4
4
4
4
4
4
4
4
4
4
4
4
4
4
4
4
4
4
4
4
4
4
4
4
4
4
4
4
4
4
      </DataArray>
    </Cells>
    <PointData>
      <DataArray type="Float64" NumberOfComponents="3" Name="Displacement" format="ascii">
0 0 0
-0.00144416 -0.000275936 0
-0.00359113 -0.000305166 0
-0.00519829 -8.60234e-05 0
-0.00502384 0.000380315 0
-0.0016788 0.00108501 0
0.00809568 0.00103723 0
0.00808427 -0.00198361 0
0.00866961 -0.0420817 0
0.00690977 -0.0744981 0
0.00287823 -0.0748419 0
-0.00132185 -0.0431218 0
-0.00318952 -0.00269704 0
-0.0030902 0.000426035 0
0.0061765 -0.000227448 0
0.00833664 -0.000677148 0
0.00755412 -0.00088231 0
0.00506787 -0.000836738 0
0.00212169 -0.00054141 0
0 0 0
0 0 0
0.00216184 1.98766e-05 0
0.00510811 -0.000210692 0
0.00759401 -0.000688391 0
0.00837737 -0.00141079 0
0.00622348 -0.00238094 0
0.00762145 -0.0428103 0
0.00648478 -0.0745523 0
0.00276057 -0.0744766 0
-0.000787944 -0.042306 0
-0.00180117 -0.00122074 0
-0.00498625 -0.00047865 0
-0.00515905 1.15192e-05 0
-0.00355192 0.000255148 0
-0.00140493 0.000251854 0
0 0 0
      </DataArray> 
      <DataArray type="Float64" NumberOfComponents="3" Name="Velocity" format="ascii">
0 0 0
0 0 0
0 0 0
0 0 0
0 0 0
0 0 0
0 0 0
0 0 0
0 0 0
0 0 0
0 0 0
0 0 0
0 0 0
0 0 0
0 0 0
0 0 0
0 0 0
0 0 0
0 0 0
0 0 0
0 0 0
0 0 0
0 0 0
0 0 0
0 0 0
0 0 0
0 0 0
0 0 0
0 0 0
0 0 0
0 0 0
0 0 0
0 0 0
0 0 0
0 0 0
0 0 0
      </DataArray> 
      <DataArray type="Float64" NumberOfComponents="3" Name="Acceleration" format="ascii">
0 0 0
0 0 0
0 0 0
0 0 0
0 0 0
0 0 0
0 0 0
0 0 0
0 0 0
0 0 0
0 0 0
0 0 0
0 0 0
0 0 0
0 0 0
0 0 0
0 0 0
0 0 0
0 0 0
0 0 0
0 0 0
0 0 0
0 0 0
0 0 0
0 0 0
0 0 0
0 0 0
0 0 0
0 0 0
0 0 0
0 0 0
0 0 0
0 0 0
0 0 0
0 0 0
0 0 0
      </DataArray> 
    </PointData>
    <CellData>
    </CellData>
  </Piece>
  </UnstructuredGrid>
</VTKFile>
