<?xml version="1.0"?>
<VTKFile type="UnstructuredGrid">
  <UnstructuredGrid>
  <Piece NumberOfPoints="36"  NumberOfCells="69">
    <Points>
      <DataArray type="Float64" NumberOfComponents="3" format="ascii">
0 0 0
-0.000658117 0.999874 0
-0.00164134 1.99986 0
-0.00238843 2.99996 0
-0.00233829 4.00017 0
-0.00086171 5.00049 0
0.00352467 6.00048 0
0.403522 5.99913 0
3.40385 5.98112 0
6.40311 5.96654 0
9.4013 5.96638 0
12.3995 5.98064 0
15.3987 5.9988 0
15.7987 6.0002 0
15.8029 4.99989 0
15.8038 3.99969 0
15.8034 2.9996 0
15.8023 1.99962 0
15.801 0.999755 0
15.8 0 0
15.4 0 0
15.401 1.00001 0
15.4023 1.99991 0
15.4035 2.9997 0
15.4038 3.99937 0
15.4029 4.99893 0
12.4035 4.98077 0
9.40292 4.96651 0
6.40124 4.96654 0
3.39961 4.98101 0
0.399085 4.99946 0
0.397679 3.99979 0
0.397629 3.00001 0
0.398377 2.00012 0
0.39936 1.00012 0
0.4 0 0
      </DataArray>
    </Points>
    <Cells>
      <DataArray type="Int32" Name="connectivity" format="ascii">
0 1
1 2
2 3
3 4
4 5
5 6
6 7
7 8
8 9
9 10
10 11
11 12
12 13
13 14
14 15
15 16
16 17
17 18
18 19
19 20
20 21
21 22
22 23
23 24
24 25
25 26
26 27
27 28
28 29
29 30
30 31
31 32
32 33
33 34
34 35
0 35
0 34
1 34
1 33
2 33
2 32
3 32
3 31
4 31
4 30
5 30
5 7
30 7
30 8
29 8
29 9
28 9
28 10
27 10
27 11
26 11
26 12
25 12
25 13
25 14
24 14
24 15
23 15
23 16
22 16
22 17
21 17
21 18
20 18
      </DataArray>
      <DataArray type="Int32" Name="offsets" format="ascii">
2
4
6
8
10
12
14
16
18
20
22
24
26
28
30
32
34
36
38
40
42
44
46
48
50
52
54
56
58
60
62
64
66
68
70
72
74
76
78
80
82
84
86
88
90
92
94
96
98
100
102
104
106
108
110
112
114
116
118
120
122
124
126
128
130
132
134
136
138
      </DataArray>
      <DataArray type="UInt8" Name="types" format="ascii">
4
4
4
4
4
4
4
4
4
4
4
4
4
4
4
4
4
4
4
4
4
4
4
4
4
4
4
4
4
4
4
4
4
4
4
4
4
4
4
4
4
4
4
4
4
4
4
4
4
4
4
4
4
4
4
4
4
4
4
4
4
4
4
4
4
4
4
4
4
      </DataArray>
    </Cells>
    <PointData>
      <DataArray type="Float64" NumberOfComponents="3" Name="Displacement" format="ascii">
0 0 0
-0.000658117 -0.000125962 0
-0.00164134 -0.000140055 0
-0.00238843 -4.19291e-05 0
-0.00233829 0.000168196 0
-0.00086171 0.00048855 0
0.00352467 0.000478929 0
0.00352238 -0.000873703 0
0.00385425 -0.0188822 0
0.0031076 -0.0334607 0
0.00129743 -0.0336205 0
-0.000547706 -0.0193579 0
-0.0013188 -0.00119691 0
-0.00127085 0.000200189 0
0.00288312 -0.000105992 0
0.00382573 -0.000308951 0
0.00344601 -0.00040043 0
0.00230447 -0.000379195 0
0.000962595 -0.000245466 0
0 0 0
0 0 0
0.000980636 1.1076e-05 0
0.00232253 -9.0498e-05 0
0.003464 -0.000304043 0
0.00384388 -0.000629048 0
0.00290253 -0.00106611 0
0.00346826 -0.019228 0
0.00291922 -0.033495 0
0.00124465 -0.0334564 0
-0.000393467 -0.0189948 0
-0.000914893 -0.00054166 0
-0.00232077 -0.000208687 0
-0.00237058 1.13837e-05 0
-0.0016235 0.000119626 0
-0.000640269 0.000115944 0
0 0 0
      </DataArray> 
      <DataArray type="Float64" NumberOfComponents="3" Name="Velocity" format="ascii">
0 0 0
0 0 0
0 0 0
0 0 0
0 0 0
0 0 0
0 0 0
0 0 0
0 0 0
0 0 0
0 0 0
0 0 0
0 0 0
0 0 0
0 0 0
0 0 0
0 0 0
0 0 0
0 0 0
0 0 0
0 0 0
0 0 0
0 0 0
0 0 0
0 0 0
0 0 0
0 0 0
0 0 0
0 0 0
0 0 0
0 0 0
0 0 0
0 0 0
0 0 0
0 0 0
0 0 0
      </DataArray> 
      <DataArray type="Float64" NumberOfComponents="3" Name="Acceleration" format="ascii">
0 0 0
0 0 0
0 0 0
0 0 0
0 0 0
0 0 0
0 0 0
0 0 0
0 0 0
0 0 0
0 0 0
0 0 0
0 0 0
0 0 0
0 0 0
0 0 0
0 0 0
0 0 0
0 0 0
0 0 0
0 0 0
0 0 0
0 0 0
0 0 0
0 0 0
0 0 0
0 0 0
0 0 0
0 0 0
0 0 0
0 0 0
0 0 0
0 0 0
0 0 0
0 0 0
0 0 0
      </DataArray> 
    </PointData>
    <CellData>
    </CellData>
  </Piece>
  </UnstructuredGrid>
</VTKFile>
