<?xml version="1.0"?>
<VTKFile type="UnstructuredGrid">
  <UnstructuredGrid>
  <Piece NumberOfPoints="36"  NumberOfCells="69">
    <Points>
      <DataArray type="Float64" NumberOfComponents="3" format="ascii">
0 0 0
-0.0025934 0.999506 0
-0.00641843 1.99946 0
-0.00921275 2.99986 0
-0.0087171 4.00072 0
-0.00241456 5.00198 0
0.0155569 6.00182 0
0.415518 5.99625 0
3.41616 5.92262 0
6.41266 5.86321 0
9.40526 5.86261 0
12.3973 5.92076 0
15.3934 5.99496 0
15.7936 6.00073 0
15.8107 4.99961 0
15.8148 3.99879 0
15.8135 2.99841 0
15.8091 1.99849 0
15.8038 0.99902 0
15.8 0 0
15.4 0 0
15.4039 1.00002 0
15.4092 1.99959 0
15.4136 2.99871 0
15.4149 3.99738 0
15.4108 4.99561 0
12.4137 4.92139 0
9.41187 4.86317 0
6.40504 4.86328 0
3.3988 4.92228 0
0.397349 4.99772 0
0.391348 3.99908 0
0.390858 2.99998 0
0.393652 2.00044 0
0.397477 1.00045 0
0.4 0 0
      </DataArray>
    </Points>
    <Cells>
      <DataArray type="Int32" Name="connectivity" format="ascii">
0 1
1 2
2 3
3 4
4 5
5 6
6 7
7 8
8 9
9 10
10 11
11 12
12 13
13 14
14 15
15 16
16 17
17 18
18 19
19 20
20 21
21 22
22 23
23 24
24 25
25 26
26 27
27 28
28 29
29 30
30 31
31 32
32 33
33 34
34 35
0 35
0 34
1 34
1 33
2 33
2 32
3 32
3 31
4 31
4 30
5 30
5 7
30 7
30 8
29 8
29 9
28 9
28 10
27 10
27 11
26 11
26 12
25 12
25 13
25 14
24 14
24 15
23 15
23 16
22 16
22 17
21 17
21 18
20 18
      </DataArray>
      <DataArray type="Int32" Name="offsets" format="ascii">
2
4
6
8
10
12
14
16
18
20
22
24
26
28
30
32
34
36
38
40
42
44
46
48
50
52
54
56
58
60
62
64
66
68
70
72
74
76
78
80
82
84
86
88
90
92
94
96
98
100
102
104
106
108
110
112
114
116
118
120
122
124
126
128
130
132
134
136
138
      </DataArray>
      <DataArray type="UInt8" Name="types" format="ascii">
4
4
4
4
4
4
4
4
4
4
4
4
4
4
4
4
4
4
4
4
4
4
4
4
4
4
4
4
4
4
4
4
4
4
4
4
4
4
4
4
4
4
4
4
4
4
4
4
4
4
4
4
4
4
4
4
4
4
4
4
4
4
4
4
4
4
4
4
4
      </DataArray>
    </Cells>
    <PointData>
      <DataArray type="Float64" NumberOfComponents="3" Name="Displacement" format="ascii">
0 0 0
-0.0025934 -0.000494021 0
-0.00641843 -0.000541401 0
-0.00921275 -0.000136844 0
-0.0087171 0.000715207 0
-0.00241456 0.00198463 0
0.0155569 0.00182313 0
0.0155181 -0.00374967 0
0.0161649 -0.0773839 0
0.0126634 -0.136793 0
0.00525695 -0.137391 0
-0.00271114 -0.0792408 0
-0.00656092 -0.00504193 0
-0.00639963 0.00072741 0
0.0106662 -0.000393327 0
0.0148039 -0.00121242 0
0.0135423 -0.00159342 0
0.00913119 -0.00151498 0
0.00383653 -0.000979833 0
0 0 0
0 0 0
0.00391016 2.32957e-05 0
0.00920504 -0.000412011 0
0.0136151 -0.00129499 0
0.0148797 -0.00261794 0
0.0107633 -0.00439166 0
0.0137161 -0.0786066 0
0.0118673 -0.136831 0
0.00504045 -0.13672 0
-0.00120192 -0.0777228 0
-0.0026505 -0.00228291 0
-0.00865221 -0.00091743 0
-0.00914212 -1.67011e-05 0
-0.00634778 0.000437746 0
-0.00252272 0.000445084 0
0 0 0
      </DataArray> 
      <DataArray type="Float64" NumberOfComponents="3" Name="Velocity" format="ascii">
0 0 0
0 0 0
0 0 0
0 0 0
0 0 0
0 0 0
0 0 0
0 0 0
0 0 0
0 0 0
0 0 0
0 0 0
0 0 0
0 0 0
0 0 0
0 0 0
0 0 0
0 0 0
0 0 0
0 0 0
0 0 0
0 0 0
0 0 0
0 0 0
0 0 0
0 0 0
0 0 0
0 0 0
0 0 0
0 0 0
0 0 0
0 0 0
0 0 0
0 0 0
0 0 0
0 0 0
      </DataArray> 
      <DataArray type="Float64" NumberOfComponents="3" Name="Acceleration" format="ascii">
0 0 0
0 0 0
0 0 0
0 0 0
0 0 0
0 0 0
0 0 0
0 0 0
0 0 0
0 0 0
0 0 0
0 0 0
0 0 0
0 0 0
0 0 0
0 0 0
0 0 0
0 0 0
0 0 0
0 0 0
0 0 0
0 0 0
0 0 0
0 0 0
0 0 0
0 0 0
0 0 0
0 0 0
0 0 0
0 0 0
0 0 0
0 0 0
0 0 0
0 0 0
0 0 0
0 0 0
      </DataArray> 
    </PointData>
    <CellData>
    </CellData>
  </Piece>
  </UnstructuredGrid>
</VTKFile>
