<?xml version="1.0"?>
<VTKFile type="UnstructuredGrid">
  <UnstructuredGrid>
  <Piece NumberOfPoints="36"  NumberOfCells="69">
    <Points>
      <DataArray type="Float64" NumberOfComponents="3" format="ascii">
0 0 0
-0.0020789 0.999603 0
-0.00515635 1.99956 0
-0.00743015 2.99988 0
-0.00709994 4.00056 0
-0.00215636 5.00158 0
0.0120962 6.00148 0
0.412072 5.99706 0
3.41274 5.93863 0
6.41006 5.89145 0
9.40418 5.89096 0
12.398 5.93714 0
15.395 5.99603 0
15.7952 6.0006 0
15.8087 4.99968 0
15.8119 3.99903 0
15.8109 2.99873 0
15.8073 1.99879 0
15.8031 0.999217 0
15.8 0 0
15.4 0 0
15.4031 1.00002 0
15.4074 1.99968 0
15.4109 2.99898 0
15.412 3.99793 0
15.4088 4.99652 0
12.411 4.93762 0
9.40943 4.8914 0
6.40401 4.8915 0
3.39896 4.93834 0
0.39766 4.9982 0
0.392953 3.99929 0
0.392626 3 0
0.3949 2.00036 0
0.397978 1.00036 0
0.4 0 0
      </DataArray>
    </Points>
    <Cells>
      <DataArray type="Int32" Name="connectivity" format="ascii">
0 1
1 2
2 3
3 4
4 5
5 6
6 7
7 8
8 9
9 10
10 11
11 12
12 13
13 14
14 15
15 16
16 17
17 18
18 19
19 20
20 21
21 22
22 23
23 24
24 25
25 26
26 27
27 28
28 29
29 30
30 31
31 32
32 33
33 34
34 35
0 35
0 34
1 34
1 33
2 33
2 32
3 32
3 31
4 31
4 30
5 30
5 7
30 7
30 8
29 8
29 9
28 9
28 10
27 10
27 11
26 11
26 12
25 12
25 13
25 14
24 14
24 15
23 15
23 16
22 16
22 17
21 17
21 18
20 18
      </DataArray>
      <DataArray type="Int32" Name="offsets" format="ascii">
2
4
6
8
10
12
14
16
18
20
22
24
26
28
30
32
34
36
38
40
42
44
46
48
50
52
54
56
58
60
62
64
66
68
70
72
74
76
78
80
82
84
86
88
90
92
94
96
98
100
102
104
106
108
110
112
114
116
118
120
122
124
126
128
130
132
134
136
138
      </DataArray>
      <DataArray type="UInt8" Name="types" format="ascii">
4
4
4
4
4
4
4
4
4
4
4
4
4
4
4
4
4
4
4
4
4
4
4
4
4
4
4
4
4
4
4
4
4
4
4
4
4
4
4
4
4
4
4
4
4
4
4
4
4
4
4
4
4
4
4
4
4
4
4
4
4
4
4
4
4
4
4
4
4
      </DataArray>
    </Cells>
    <PointData>
      <DataArray type="Float64" NumberOfComponents="3" Name="Displacement" format="ascii">
0 0 0
-0.0020789 -0.000396584 0
-0.00515635 -0.000436482 0
-0.00743015 -0.000116265 0
-0.00709994 0.000561404 0
-0.00215636 0.00157764 0
0.0120962 0.00147607 0
0.0120718 -0.00293681 0
0.012739 -0.0613662 0
0.0100575 -0.10855 0
0.00418155 -0.109037 0
-0.0020494 -0.0628588 0
-0.00495313 -0.00396871 0
-0.00481751 0.000596977 0
0.00870676 -0.000320921 0
0.0119286 -0.000973363 0
0.0108644 -0.00127415 0
0.00730857 -0.00120996 0
0.0030657 -0.000782687 0
0 0 0
0 0 0
0.00312417 2.32202e-05 0
0.0073672 -0.000317962 0
0.0109223 -0.00101659 0
0.0119883 -0.00206768 0
0.00877987 -0.00347788 0
0.0109842 -0.062378 0
0.00943143 -0.108602 0
0.00400992 -0.108504 0
-0.0010418 -0.0616614 0
-0.00233952 -0.00179665 0
-0.00704694 -0.000714211 0
-0.0073736 2.86289e-07 0
-0.00509982 0.000358381 0
-0.00202233 0.00035942 0
0 0 0
      </DataArray> 
      <DataArray type="Float64" NumberOfComponents="3" Name="Velocity" format="ascii">
0 0 0
0 0 0
0 0 0
0 0 0
0 0 0
0 0 0
0 0 0
0 0 0
0 0 0
0 0 0
0 0 0
0 0 0
0 0 0
0 0 0
0 0 0
0 0 0
0 0 0
0 0 0
0 0 0
0 0 0
0 0 0
0 0 0
0 0 0
0 0 0
0 0 0
0 0 0
0 0 0
0 0 0
0 0 0
0 0 0
0 0 0
0 0 0
0 0 0
0 0 0
0 0 0
0 0 0
      </DataArray> 
      <DataArray type="Float64" NumberOfComponents="3" Name="Acceleration" format="ascii">
0 0 0
0 0 0
0 0 0
0 0 0
0 0 0
0 0 0
0 0 0
0 0 0
0 0 0
0 0 0
0 0 0
0 0 0
0 0 0
0 0 0
0 0 0
0 0 0
0 0 0
0 0 0
0 0 0
0 0 0
0 0 0
0 0 0
0 0 0
0 0 0
0 0 0
0 0 0
0 0 0
0 0 0
0 0 0
0 0 0
0 0 0
0 0 0
0 0 0
0 0 0
0 0 0
0 0 0
      </DataArray> 
    </PointData>
    <CellData>
    </CellData>
  </Piece>
  </UnstructuredGrid>
</VTKFile>
