<?xml version="1.0"?>
<VTKFile type="UnstructuredGrid">
  <UnstructuredGrid>
  <Piece NumberOfPoints="36"  NumberOfCells="69">
    <Points>
      <DataArray type="Float64" NumberOfComponents="3" format="ascii">
0 0 0
-0.00276323 0.999474 0
-0.00683361 1.99942 0
-0.00979562 2.99986 0
-0.00923723 4.00077 0
-0.00247307 5.00212 0
0.0167444 6.00194 0
0.4167 5.99597 0
3.41732 5.91725 0
6.41353 5.85375 0
9.40562 5.85312 0
12.3971 5.91527 0
15.3929 5.9946 0
15.793 6.00077 0
15.8113 4.99958 0
15.8157 3.99871 0
15.8144 2.9983 0
15.8097 1.99838 0
15.8041 0.998955 0
15.8 0 0
15.4 0 0
15.4042 1.00002 0
15.4098 1.99956 0
15.4145 2.99861 0
15.4158 3.9972 0
15.4114 4.9953 0
12.4146 4.91596 0
9.41268 4.85372 0
6.40538 4.85384 0
3.39875 4.9169 0
0.397273 4.99755 0
0.390831 3.99901 0
0.39028 2.99998 0
0.393242 2.00046 0
0.397312 1.00047 0
0.4 0 0
      </DataArray>
    </Points>
    <Cells>
      <DataArray type="Int32" Name="connectivity" format="ascii">
0 1
1 2
2 3
3 4
4 5
5 6
6 7
7 8
8 9
9 10
10 11
11 12
12 13
13 14
14 15
15 16
16 17
17 18
18 19
19 20
20 21
21 22
22 23
23 24
24 25
25 26
26 27
27 28
28 29
29 30
30 31
31 32
32 33
33 34
34 35
0 35
0 34
1 34
1 33
2 33
2 32
3 32
3 31
4 31
4 30
5 30
5 7
30 7
30 8
29 8
29 9
28 9
28 10
27 10
27 11
26 11
26 12
25 12
25 13
25 14
24 14
24 15
23 15
23 16
22 16
22 17
21 17
21 18
20 18
      </DataArray>
      <DataArray type="Int32" Name="offsets" format="ascii">
2
4
6
8
10
12
14
16
18
20
22
24
26
28
30
32
34
36
38
40
42
44
46
48
50
52
54
56
58
60
62
64
66
68
70
72
74
76
78
80
82
84
86
88
90
92
94
96
98
100
102
104
106
108
110
112
114
116
118
120
122
124
126
128
130
132
134
136
138
      </DataArray>
      <DataArray type="UInt8" Name="types" format="ascii">
4
4
4
4
4
4
4
4
4
4
4
4
4
4
4
4
4
4
4
4
4
4
4
4
4
4
4
4
4
4
4
4
4
4
4
4
4
4
4
4
4
4
4
4
4
4
4
4
4
4
4
4
4
4
4
4
4
4
4
4
4
4
4
4
4
4
4
4
4
      </DataArray>
    </Cells>
    <PointData>
      <DataArray type="Float64" NumberOfComponents="3" Name="Displacement" format="ascii">
0 0 0
-0.00276323 -0.000526103 0
-0.00683361 -0.000575703 0
-0.00979562 -0.000142802 0
-0.00923723 0.000767439 0
-0.00247307 0.00212054 0
0.0167444 0.00193587 0
0.0166999 -0.00402631 0
0.017322 -0.0827505 0
0.0135348 -0.146248 0
0.00561584 -0.146882 0
-0.00294443 -0.0847271 0
-0.00712847 -0.00540494 0
-0.0069595 0.000768769 0
0.011294 -0.000416516 0
0.0157454 -0.00129108 0
0.0144251 -0.00169911 0
0.00973408 -0.00161615 0
0.00409212 -0.00104523 0
0 0 0
0 0 0
0.00417083 2.27782e-05 0
0.00981302 -0.000444509 0
0.0145028 -0.00138941 0
0.0158267 -0.00280321 0
0.0113996 -0.00469834 0
0.0146191 -0.0840389 0
0.0126812 -0.146278 0
0.0053843 -0.146164 0
-0.00124532 -0.0831009 0
-0.00272716 -0.00244743 0
-0.00916855 -0.000987034 0
-0.00972033 -2.39233e-05 0
-0.00675829 0.000463059 0
-0.00268786 0.000473044 0
0 0 0
      </DataArray> 
      <DataArray type="Float64" NumberOfComponents="3" Name="Velocity" format="ascii">
0 0 0
0 0 0
0 0 0
0 0 0
0 0 0
0 0 0
0 0 0
0 0 0
0 0 0
0 0 0
0 0 0
0 0 0
0 0 0
0 0 0
0 0 0
0 0 0
0 0 0
0 0 0
0 0 0
0 0 0
0 0 0
0 0 0
0 0 0
0 0 0
0 0 0
0 0 0
0 0 0
0 0 0
0 0 0
0 0 0
0 0 0
0 0 0
0 0 0
0 0 0
0 0 0
0 0 0
      </DataArray> 
      <DataArray type="Float64" NumberOfComponents="3" Name="Acceleration" format="ascii">
0 0 0
0 0 0
0 0 0
0 0 0
0 0 0
0 0 0
0 0 0
0 0 0
0 0 0
0 0 0
0 0 0
0 0 0
0 0 0
0 0 0
0 0 0
0 0 0
0 0 0
0 0 0
0 0 0
0 0 0
0 0 0
0 0 0
0 0 0
0 0 0
0 0 0
0 0 0
0 0 0
0 0 0
0 0 0
0 0 0
0 0 0
0 0 0
0 0 0
0 0 0
0 0 0
0 0 0
      </DataArray> 
    </PointData>
    <CellData>
    </CellData>
  </Piece>
  </UnstructuredGrid>
</VTKFile>
