<?xml version="1.0"?>
<VTKFile type="UnstructuredGrid">
  <UnstructuredGrid>
  <Piece NumberOfPoints="36"  NumberOfCells="69">
    <Points>
      <DataArray type="Float64" NumberOfComponents="3" format="ascii">
0 0 0
-0.00223895 0.999573 0
-0.00554962 1.99953 0
-0.00798732 2.99988 0
-0.00760952 4.00061 0
-0.00224945 5.0017 0
0.0131512 6.00158 0
0.413123 5.99681 0
3.41379 5.93369 0
6.41086 5.88273 0
9.40451 5.88221 0
12.3978 5.93208 0
15.3946 5.9957 0
15.7947 6.00064 0
15.8093 4.99966 0
15.8128 3.99895 0
15.8117 2.99863 0
15.8079 1.9987 0
15.8033 0.999156 0
15.8 0 0
15.4 0 0
15.4034 1.00002 0
15.4079 1.99965 0
15.4118 2.9989 0
15.4129 3.99776 0
15.4094 4.99624 0
12.4118 4.93261 0
9.41018 4.88268 0
6.40433 4.88278 0
3.3989 4.93338 0
0.397551 4.99805 0
0.392447 3.99922 0
0.392074 3 0
0.394511 2.00038 0
0.397822 1.00039 0
0.4 0 0
      </DataArray>
    </Points>
    <Cells>
      <DataArray type="Int32" Name="connectivity" format="ascii">
0 1
1 2
2 3
3 4
4 5
5 6
6 7
7 8
8 9
9 10
10 11
11 12
12 13
13 14
14 15
15 16
16 17
17 18
18 19
19 20
20 21
21 22
22 23
23 24
24 25
25 26
26 27
27 28
28 29
29 30
30 31
31 32
32 33
33 34
34 35
0 35
0 34
1 34
1 33
2 33
2 32
3 32
3 31
4 31
4 30
5 30
5 7
30 7
30 8
29 8
29 9
28 9
28 10
27 10
27 11
26 11
26 12
25 12
25 13
25 14
24 14
24 15
23 15
23 16
22 16
22 17
21 17
21 18
20 18
      </DataArray>
      <DataArray type="Int32" Name="offsets" format="ascii">
2
4
6
8
10
12
14
16
18
20
22
24
26
28
30
32
34
36
38
40
42
44
46
48
50
52
54
56
58
60
62
64
66
68
70
72
74
76
78
80
82
84
86
88
90
92
94
96
98
100
102
104
106
108
110
112
114
116
118
120
122
124
126
128
130
132
134
136
138
      </DataArray>
      <DataArray type="UInt8" Name="types" format="ascii">
4
4
4
4
4
4
4
4
4
4
4
4
4
4
4
4
4
4
4
4
4
4
4
4
4
4
4
4
4
4
4
4
4
4
4
4
4
4
4
4
4
4
4
4
4
4
4
4
4
4
4
4
4
4
4
4
4
4
4
4
4
4
4
4
4
4
4
4
4
      </DataArray>
    </Cells>
    <PointData>
      <DataArray type="Float64" NumberOfComponents="3" Name="Displacement" format="ascii">
0 0 0
-0.00223895 -0.000426931 0
-0.00554962 -0.000469275 0
-0.00798732 -0.000123062 0
-0.00760952 0.000608551 0
-0.00224945 0.0017035 0
0.0131512 0.0015849 0
0.0131227 -0.00318569 0
0.0137922 -0.0663109 0
0.0108627 -0.117273 0
0.00451421 -0.117794 0
-0.00224814 -0.0679171 0
-0.00543566 -0.00429837 0
-0.00529168 0.00063836 0
0.00932538 -0.000343782 0
0.0128266 -0.00104784 0
0.011698 -0.00137331 0
0.00787493 -0.0013046 0
0.00330493 -0.000843862 0
0 0 0
0 0 0
0.00336809 2.35035e-05 0
0.00793826 -0.00034652 0
0.0117605 -0.00110198 0
0.0128913 -0.0022371 0
0.00940566 -0.00375971 0
0.0118334 -0.0673901 0
0.0101845 -0.117322 0
0.00432873 -0.117219 0
-0.00109613 -0.066621 0
-0.00244868 -0.00194599 0
-0.00755276 -0.000776218 0
-0.00792639 -4.22302e-06 0
-0.00548871 0.000383494 0
-0.002178 0.000386219 0
0 0 0
      </DataArray> 
      <DataArray type="Float64" NumberOfComponents="3" Name="Velocity" format="ascii">
0 0 0
0 0 0
0 0 0
0 0 0
0 0 0
0 0 0
0 0 0
0 0 0
0 0 0
0 0 0
0 0 0
0 0 0
0 0 0
0 0 0
0 0 0
0 0 0
0 0 0
0 0 0
0 0 0
0 0 0
0 0 0
0 0 0
0 0 0
0 0 0
0 0 0
0 0 0
0 0 0
0 0 0
0 0 0
0 0 0
0 0 0
0 0 0
0 0 0
0 0 0
0 0 0
0 0 0
      </DataArray> 
      <DataArray type="Float64" NumberOfComponents="3" Name="Acceleration" format="ascii">
0 0 0
0 0 0
0 0 0
0 0 0
0 0 0
0 0 0
0 0 0
0 0 0
0 0 0
0 0 0
0 0 0
0 0 0
0 0 0
0 0 0
0 0 0
0 0 0
0 0 0
0 0 0
0 0 0
0 0 0
0 0 0
0 0 0
0 0 0
0 0 0
0 0 0
0 0 0
0 0 0
0 0 0
0 0 0
0 0 0
0 0 0
0 0 0
0 0 0
0 0 0
0 0 0
0 0 0
      </DataArray> 
    </PointData>
    <CellData>
    </CellData>
  </Piece>
  </UnstructuredGrid>
</VTKFile>
