<?xml version="1.0"?>
<VTKFile type="UnstructuredGrid">
  <UnstructuredGrid>
  <Piece NumberOfPoints="36"  NumberOfCells="69">
    <Points>
      <DataArray type="Float64" NumberOfComponents="3" format="ascii">
0 0 0
-0.00225737 0.99957 0
-0.00559485 1.99953 0
-0.0080513 2.99988 0
-0.0076678 4.00061 0
-0.00225943 5.00172 0
0.0132738 6.0016 0
0.413245 5.99679 0
3.41391 5.93312 0
6.41096 5.88172 0
9.40455 5.88119 0
12.3977 5.9315 0
15.3945 5.99566 0
15.7947 6.00064 0
15.8094 4.99965 0
15.8129 3.99894 0
15.8118 2.99862 0
15.8079 1.99868 0
15.8033 0.999149 0
15.8 0 0
15.4 0 0
15.4034 1.00002 0
15.408 1.99965 0
15.4119 2.99889 0
15.413 3.99774 0
15.4095 4.99621 0
12.4119 4.93203 0
9.41027 4.88167 0
6.40437 4.88177 0
3.3989 4.93281 0
0.397539 4.99804 0
0.392389 3.99922 0
0.39201 3 0
0.394467 2.00039 0
0.397804 1.00039 0
0.4 0 0
      </DataArray>
    </Points>
    <Cells>
      <DataArray type="Int32" Name="connectivity" format="ascii">
0 1
1 2
2 3
3 4
4 5
5 6
6 7
7 8
8 9
9 10
10 11
11 12
12 13
13 14
14 15
15 16
16 17
17 18
18 19
19 20
20 21
21 22
22 23
23 24
24 25
25 26
26 27
27 28
28 29
29 30
30 31
31 32
32 33
33 34
34 35
0 35
0 34
1 34
1 33
2 33
2 32
3 32
3 31
4 31
4 30
5 30
5 7
30 7
30 8
29 8
29 9
28 9
28 10
27 10
27 11
26 11
26 12
25 12
25 13
25 14
24 14
24 15
23 15
23 16
22 16
22 17
21 17
21 18
20 18
      </DataArray>
      <DataArray type="Int32" Name="offsets" format="ascii">
2
4
6
8
10
12
14
16
18
20
22
24
26
28
30
32
34
36
38
40
42
44
46
48
50
52
54
56
58
60
62
64
66
68
70
72
74
76
78
80
82
84
86
88
90
92
94
96
98
100
102
104
106
108
110
112
114
116
118
120
122
124
126
128
130
132
134
136
138
      </DataArray>
      <DataArray type="UInt8" Name="types" format="ascii">
4
4
4
4
4
4
4
4
4
4
4
4
4
4
4
4
4
4
4
4
4
4
4
4
4
4
4
4
4
4
4
4
4
4
4
4
4
4
4
4
4
4
4
4
4
4
4
4
4
4
4
4
4
4
4
4
4
4
4
4
4
4
4
4
4
4
4
4
4
      </DataArray>
    </Cells>
    <PointData>
      <DataArray type="Float64" NumberOfComponents="3" Name="Displacement" format="ascii">
0 0 0
-0.00225737 -0.000430422 0
-0.00559485 -0.00047304 0
-0.0080513 -0.000123821 0
-0.0076678 0.000614017 0
-0.00225943 0.00171802 0
0.0132738 0.00159737 0
0.0132449 -0.00321457 0
0.0139141 -0.0668822 0
0.0109557 -0.118281 0
0.00455261 -0.118806 0
-0.00227142 -0.0685014 0
-0.0054922 -0.00433656 0
-0.00534728 0.000643076 0
0.00939607 -0.000346394 0
0.0129298 -0.00105641 0
0.0117939 -0.00138473 0
0.00794015 -0.00131551 0
0.0033325 -0.000850911 0
0 0 0
0 0 0
0.0033962 2.35213e-05 0
0.00800403 -0.000349847 0
0.0118569 -0.00111188 0
0.0129951 -0.0022567 0
0.00947719 -0.00379229 0
0.0119312 -0.0679691 0
0.0102715 -0.118329 0
0.00436552 -0.118226 0
-0.00110213 -0.067194 0
-0.00246053 -0.00196329 0
-0.00761061 -0.000783424 0
-0.00798986 -4.78647e-06 0
-0.00553343 0.00038636 0
-0.00219592 0.000389295 0
0 0 0
      </DataArray> 
      <DataArray type="Float64" NumberOfComponents="3" Name="Velocity" format="ascii">
0 0 0
0 0 0
0 0 0
0 0 0
0 0 0
0 0 0
0 0 0
0 0 0
0 0 0
0 0 0
0 0 0
0 0 0
0 0 0
0 0 0
0 0 0
0 0 0
0 0 0
0 0 0
0 0 0
0 0 0
0 0 0
0 0 0
0 0 0
0 0 0
0 0 0
0 0 0
0 0 0
0 0 0
0 0 0
0 0 0
0 0 0
0 0 0
0 0 0
0 0 0
0 0 0
0 0 0
      </DataArray> 
      <DataArray type="Float64" NumberOfComponents="3" Name="Acceleration" format="ascii">
0 0 0
0 0 0
0 0 0
0 0 0
0 0 0
0 0 0
0 0 0
0 0 0
0 0 0
0 0 0
0 0 0
0 0 0
0 0 0
0 0 0
0 0 0
0 0 0
0 0 0
0 0 0
0 0 0
0 0 0
0 0 0
0 0 0
0 0 0
0 0 0
0 0 0
0 0 0
0 0 0
0 0 0
0 0 0
0 0 0
0 0 0
0 0 0
0 0 0
0 0 0
0 0 0
0 0 0
      </DataArray> 
    </PointData>
    <CellData>
    </CellData>
  </Piece>
  </UnstructuredGrid>
</VTKFile>
