<?xml version="1.0"?>
<VTKFile type="UnstructuredGrid">
  <UnstructuredGrid>
  <Piece NumberOfPoints="36"  NumberOfCells="69">
    <Points>
      <DataArray type="Float64" NumberOfComponents="3" format="ascii">
0 0 0
-0.00244106 0.999535 0
-0.00604539 1.99949 0
-0.00868752 2.99987 0
-0.00824466 4.00067 0
-0.00235063 5.00186 0
0.0145111 6.00172 0
0.414477 5.99649 0
3.41514 5.9274 0
6.41189 5.87163 0
9.40494 5.87107 0
12.3975 5.92565 0
15.3939 5.99528 0
15.7941 6.00069 0
15.8101 4.99963 0
15.814 3.99886 0
15.8127 2.9985 0
15.8086 1.99858 0
15.8036 0.999079 0
15.8 0 0
15.4 0 0
15.4037 1.00002 0
15.4087 1.99962 0
15.4128 2.99879 0
15.414 3.99755 0
15.4102 4.99588 0
12.4129 4.92623 0
9.41114 4.87159 0
6.40473 4.8717 0
3.39884 4.92707 0
0.397429 4.99786 0
0.391817 3.99914 0
0.391379 2.99999 0
0.394021 2.00041 0
0.397625 1.00042 0
0.4 0 0
      </DataArray>
    </Points>
    <Cells>
      <DataArray type="Int32" Name="connectivity" format="ascii">
0 1
1 2
2 3
3 4
4 5
5 6
6 7
7 8
8 9
9 10
10 11
11 12
12 13
13 14
14 15
15 16
16 17
17 18
18 19
19 20
20 21
21 22
22 23
23 24
24 25
25 26
26 27
27 28
28 29
29 30
30 31
31 32
32 33
33 34
34 35
0 35
0 34
1 34
1 33
2 33
2 32
3 32
3 31
4 31
4 30
5 30
5 7
30 7
30 8
29 8
29 9
28 9
28 10
27 10
27 11
26 11
26 12
25 12
25 13
25 14
24 14
24 15
23 15
23 16
22 16
22 17
21 17
21 18
20 18
      </DataArray>
      <DataArray type="Int32" Name="offsets" format="ascii">
2
4
6
8
10
12
14
16
18
20
22
24
26
28
30
32
34
36
38
40
42
44
46
48
50
52
54
56
58
60
62
64
66
68
70
72
74
76
78
80
82
84
86
88
90
92
94
96
98
100
102
104
106
108
110
112
114
116
118
120
122
124
126
128
130
132
134
136
138
      </DataArray>
      <DataArray type="UInt8" Name="types" format="ascii">
4
4
4
4
4
4
4
4
4
4
4
4
4
4
4
4
4
4
4
4
4
4
4
4
4
4
4
4
4
4
4
4
4
4
4
4
4
4
4
4
4
4
4
4
4
4
4
4
4
4
4
4
4
4
4
4
4
4
4
4
4
4
4
4
4
4
4
4
4
      </DataArray>
    </Cells>
    <PointData>
      <DataArray type="Float64" NumberOfComponents="3" Name="Displacement" format="ascii">
0 0 0
-0.00244106 -0.000465207 0
-0.00604539 -0.000510488 0
-0.00868752 -0.000131139 0
-0.00824466 0.000668982 0
-0.00235063 0.00186339 0
0.0145111 0.00172122 0
0.0144769 -0.00350509 0
0.0151382 -0.0726039 0
0.0118865 -0.128369 0
0.00493669 -0.128934 0
-0.00250823 -0.0743531 0
-0.00606759 -0.00472004 0
-0.00591353 0.000689582 0
0.0100949 -0.000372219 0
0.0139561 -0.00114175 0
0.0127499 -0.00149874 0
0.00859092 -0.00142443 0
0.00360775 -0.00092131 0
0 0 0
0 0 0
0.00367686 2.35279e-05 0
0.00866023 -0.00038348 0
0.0128183 -0.00121137 0
0.0140271 -0.0024533 0
0.0101846 -0.00411872 0
0.0129066 -0.0737659 0
0.0111415 -0.128412 0
0.00473358 -0.128305 0
-0.00115894 -0.0729311 0
-0.0025706 -0.00213704 0
-0.00818323 -0.000856072 0
-0.00862106 -1.09125e-05 0
-0.00597893 0.000414662 0
-0.00237456 0.000419867 0
0 0 0
      </DataArray> 
      <DataArray type="Float64" NumberOfComponents="3" Name="Velocity" format="ascii">
0 0 0
0 0 0
0 0 0
0 0 0
0 0 0
0 0 0
0 0 0
0 0 0
0 0 0
0 0 0
0 0 0
0 0 0
0 0 0
0 0 0
0 0 0
0 0 0
0 0 0
0 0 0
0 0 0
0 0 0
0 0 0
0 0 0
0 0 0
0 0 0
0 0 0
0 0 0
0 0 0
0 0 0
0 0 0
0 0 0
0 0 0
0 0 0
0 0 0
0 0 0
0 0 0
0 0 0
      </DataArray> 
      <DataArray type="Float64" NumberOfComponents="3" Name="Acceleration" format="ascii">
0 0 0
0 0 0
0 0 0
0 0 0
0 0 0
0 0 0
0 0 0
0 0 0
0 0 0
0 0 0
0 0 0
0 0 0
0 0 0
0 0 0
0 0 0
0 0 0
0 0 0
0 0 0
0 0 0
0 0 0
0 0 0
0 0 0
0 0 0
0 0 0
0 0 0
0 0 0
0 0 0
0 0 0
0 0 0
0 0 0
0 0 0
0 0 0
0 0 0
0 0 0
0 0 0
0 0 0
      </DataArray> 
    </PointData>
    <CellData>
    </CellData>
  </Piece>
  </UnstructuredGrid>
</VTKFile>
