<?xml version="1.0"?>
<VTKFile type="UnstructuredGrid">
  <UnstructuredGrid>
  <Piece NumberOfPoints="36"  NumberOfCells="69">
    <Points>
      <DataArray type="Float64" NumberOfComponents="3" format="ascii">
0 0 0
-0.00189954 0.999637 0
-0.00471495 1.9996 0
-0.00680303 2.99989 0
-0.0065221 4.00051 0
-0.00203873 5.00144 0
0.0109364 6.00135 0
0.410916 5.99734 0
3.41157 5.94414 0
6.40916 5.90116 0
9.40381 5.90071 0
12.3982 5.94277 0
15.3956 5.9964 0
15.7957 6.00055 0
15.808 4.99971 0
15.8109 3.99911 0
15.8099 2.99884 0
15.8067 1.9989 0
15.8028 0.999286 0
15.8 0 0
15.4 0 0
15.4029 1.00002 0
15.4067 1.99971 0
15.41 2.99908 0
15.411 3.99812 0
15.4081 4.99684 0
12.41 4.9432 0
9.40859 4.9011 0
6.40365 4.9012 0
3.39902 4.94386 0
0.397796 4.99837 0
0.393527 3.99935 0
0.393249 3 0
0.395337 2.00033 0
0.398152 1.00033 0
0.4 0 0
      </DataArray>
    </Points>
    <Cells>
      <DataArray type="Int32" Name="connectivity" format="ascii">
0 1
1 2
2 3
3 4
4 5
5 6
6 7
7 8
8 9
9 10
10 11
11 12
12 13
13 14
14 15
15 16
16 17
17 18
18 19
19 20
20 21
21 22
22 23
23 24
24 25
25 26
26 27
27 28
28 29
29 30
30 31
31 32
32 33
33 34
34 35
0 35
0 34
1 34
1 33
2 33
2 32
3 32
3 31
4 31
4 30
5 30
5 7
30 7
30 8
29 8
29 9
28 9
28 10
27 10
27 11
26 11
26 12
25 12
25 13
25 14
24 14
24 15
23 15
23 16
22 16
22 17
21 17
21 18
20 18
      </DataArray>
      <DataArray type="Int32" Name="offsets" format="ascii">
2
4
6
8
10
12
14
16
18
20
22
24
26
28
30
32
34
36
38
40
42
44
46
48
50
52
54
56
58
60
62
64
66
68
70
72
74
76
78
80
82
84
86
88
90
92
94
96
98
100
102
104
106
108
110
112
114
116
118
120
122
124
126
128
130
132
134
136
138
      </DataArray>
      <DataArray type="UInt8" Name="types" format="ascii">
4
4
4
4
4
4
4
4
4
4
4
4
4
4
4
4
4
4
4
4
4
4
4
4
4
4
4
4
4
4
4
4
4
4
4
4
4
4
4
4
4
4
4
4
4
4
4
4
4
4
4
4
4
4
4
4
4
4
4
4
4
4
4
4
4
4
4
4
4
      </DataArray>
    </Cells>
    <PointData>
      <DataArray type="Float64" NumberOfComponents="3" Name="Displacement" format="ascii">
0 0 0
-0.00189954 -0.000362538 0
-0.00471495 -0.000399575 0
-0.00680303 -0.000108241 0
-0.0065221 0.000509294 0
-0.00203873 0.0014374 0
0.0109364 0.00135322 0
0.0109163 -0.00266205 0
0.011572 -0.0558649 0
0.00916067 -0.0988418 0
0.00381072 -0.0992884 0
-0.00183412 -0.0572299 0
-0.0044308 -0.00360366 0
-0.00430494 0.000549763 0
0.00800405 -0.000294955 0
0.0109184 -0.000889788 0
0.00992969 -0.00116319 0
0.00667455 -0.00110415 0
0.00279819 -0.000714295 0
0 0 0
0 0 0
0.00285144 2.26305e-05 0
0.00672793 -0.000286691 0
0.00998248 -0.000922176 0
0.0109727 -0.00187965 0
0.00806941 -0.0031646 0
0.0100331 -0.0567991 0
0.00859241 -0.0988961 0
0.00365449 -0.0988037 0
-0.000976207 -0.0561419 0
-0.00220424 -0.0016313 0
-0.00647337 -0.000645991 0
-0.00675138 4.52585e-06 0
-0.00466332 0.000329793 0
-0.00184788 0.000329231 0
0 0 0
      </DataArray> 
      <DataArray type="Float64" NumberOfComponents="3" Name="Velocity" format="ascii">
0 0 0
0 0 0
0 0 0
0 0 0
0 0 0
0 0 0
0 0 0
0 0 0
0 0 0
0 0 0
0 0 0
0 0 0
0 0 0
0 0 0
0 0 0
0 0 0
0 0 0
0 0 0
0 0 0
0 0 0
0 0 0
0 0 0
0 0 0
0 0 0
0 0 0
0 0 0
0 0 0
0 0 0
0 0 0
0 0 0
0 0 0
0 0 0
0 0 0
0 0 0
0 0 0
0 0 0
      </DataArray> 
      <DataArray type="Float64" NumberOfComponents="3" Name="Acceleration" format="ascii">
0 0 0
0 0 0
0 0 0
0 0 0
0 0 0
0 0 0
0 0 0
0 0 0
0 0 0
0 0 0
0 0 0
0 0 0
0 0 0
0 0 0
0 0 0
0 0 0
0 0 0
0 0 0
0 0 0
0 0 0
0 0 0
0 0 0
0 0 0
0 0 0
0 0 0
0 0 0
0 0 0
0 0 0
0 0 0
0 0 0
0 0 0
0 0 0
0 0 0
0 0 0
0 0 0
0 0 0
      </DataArray> 
    </PointData>
    <CellData>
    </CellData>
  </Piece>
  </UnstructuredGrid>
</VTKFile>
