<?xml version="1.0"?>
<VTKFile type="UnstructuredGrid">
  <UnstructuredGrid>
  <Piece NumberOfPoints="36"  NumberOfCells="69">
    <Points>
      <DataArray type="Float64" NumberOfComponents="3" format="ascii">
0 0 0
-0.00264201 0.999497 0
-0.00653734 1.99945 0
-0.00937987 2.99986 0
-0.00886668 4.00073 0
-0.00243269 5.00202 0
0.0158945 6.00186 0
0.415854 5.99617 0
3.41649 5.92108 0
6.41291 5.86051 0
9.40536 5.8599 0
12.3972 5.91919 0
15.3933 5.99485 0
15.7934 6.00074 0
15.8108 4.9996 0
15.8151 3.99877 0
15.8138 2.99838 0
15.8093 1.99846 0
15.8039 0.999001 0
15.8 0 0
15.4 0 0
15.404 1.00002 0
15.4094 1.99958 0
15.4139 2.99868 0
15.4152 3.99733 0
15.4109 4.99552 0
12.414 4.91984 0
9.4121 4.86047 0
6.40514 4.86058 0
3.39879 4.92074 0
0.397326 4.99767 0
0.391199 3.99906 0
0.390692 2.99998 0
0.393535 2.00045 0
0.39743 1.00045 0
0.4 0 0
      </DataArray>
    </Points>
    <Cells>
      <DataArray type="Int32" Name="connectivity" format="ascii">
0 1
1 2
2 3
3 4
4 5
5 6
6 7
7 8
8 9
9 10
10 11
11 12
12 13
13 14
14 15
15 16
16 17
17 18
18 19
19 20
20 21
21 22
22 23
23 24
24 25
25 26
26 27
27 28
28 29
29 30
30 31
31 32
32 33
33 34
34 35
0 35
0 34
1 34
1 33
2 33
2 32
3 32
3 31
4 31
4 30
5 30
5 7
30 7
30 8
29 8
29 9
28 9
28 10
27 10
27 11
26 11
26 12
25 12
25 13
25 14
24 14
24 15
23 15
23 16
22 16
22 17
21 17
21 18
20 18
      </DataArray>
      <DataArray type="Int32" Name="offsets" format="ascii">
2
4
6
8
10
12
14
16
18
20
22
24
26
28
30
32
34
36
38
40
42
44
46
48
50
52
54
56
58
60
62
64
66
68
70
72
74
76
78
80
82
84
86
88
90
92
94
96
98
100
102
104
106
108
110
112
114
116
118
120
122
124
126
128
130
132
134
136
138
      </DataArray>
      <DataArray type="UInt8" Name="types" format="ascii">
4
4
4
4
4
4
4
4
4
4
4
4
4
4
4
4
4
4
4
4
4
4
4
4
4
4
4
4
4
4
4
4
4
4
4
4
4
4
4
4
4
4
4
4
4
4
4
4
4
4
4
4
4
4
4
4
4
4
4
4
4
4
4
4
4
4
4
4
4
      </DataArray>
    </Cells>
    <PointData>
      <DataArray type="Float64" NumberOfComponents="3" Name="Displacement" format="ascii">
0 0 0
-0.00264201 -0.000503208 0
-0.00653734 -0.000551236 0
-0.00937987 -0.000138593 0
-0.00886668 0.000730081 0
-0.00243269 0.00202345 0
0.0158945 0.0018555 0
0.0158541 -0.00382842 0
0.0164947 -0.0789158 0
0.0129122 -0.139493 0
0.00535947 -0.140101 0
-0.00277714 -0.080807 0
-0.00672146 -0.00514537 0
-0.00655792 0.000739336 0
0.0108469 -0.000400001 0
0.0150738 -0.00123495 0
0.013795 -0.00162366 0
0.00930368 -0.00154391 0
0.00390963 -0.000998534 0
0 0 0
0 0 0
0.00398471 2.31757e-05 0
0.00937899 -0.000421237 0
0.0138692 -0.00132188 0
0.0151512 -0.00267078 0
0.0109464 -0.00447918 0
0.0139745 -0.0801575 0
0.0120998 -0.139528 0
0.00513867 -0.139417 0
-0.00121484 -0.0792581 0
-0.00267379 -0.00232979 0
-0.0088007 -0.000937221 0
-0.00930791 -1.86848e-05 0
-0.00646535 0.000445037 0
-0.00256999 0.000453103 0
0 0 0
      </DataArray> 
      <DataArray type="Float64" NumberOfComponents="3" Name="Velocity" format="ascii">
0 0 0
0 0 0
0 0 0
0 0 0
0 0 0
0 0 0
0 0 0
0 0 0
0 0 0
0 0 0
0 0 0
0 0 0
0 0 0
0 0 0
0 0 0
0 0 0
0 0 0
0 0 0
0 0 0
0 0 0
0 0 0
0 0 0
0 0 0
0 0 0
0 0 0
0 0 0
0 0 0
0 0 0
0 0 0
0 0 0
0 0 0
0 0 0
0 0 0
0 0 0
0 0 0
0 0 0
      </DataArray> 
      <DataArray type="Float64" NumberOfComponents="3" Name="Acceleration" format="ascii">
0 0 0
0 0 0
0 0 0
0 0 0
0 0 0
0 0 0
0 0 0
0 0 0
0 0 0
0 0 0
0 0 0
0 0 0
0 0 0
0 0 0
0 0 0
0 0 0
0 0 0
0 0 0
0 0 0
0 0 0
0 0 0
0 0 0
0 0 0
0 0 0
0 0 0
0 0 0
0 0 0
0 0 0
0 0 0
0 0 0
0 0 0
0 0 0
0 0 0
0 0 0
0 0 0
0 0 0
      </DataArray> 
    </PointData>
    <CellData>
    </CellData>
  </Piece>
  </UnstructuredGrid>
</VTKFile>
