<?xml version="1.0"?>
<VTKFile type="UnstructuredGrid">
  <UnstructuredGrid>
  <Piece NumberOfPoints="36"  NumberOfCells="69">
    <Points>
      <DataArray type="Float64" NumberOfComponents="3" format="ascii">
0 0 0
-0.0024044 0.999542 0
-0.00595553 1.9995 0
-0.0085608 2.99987 0
-0.00813015 4.00066 0
-0.00233365 5.00183 0
0.0142621 6.0017 0
0.414229 5.99655 0
3.41489 5.92854 0
6.4117 5.87365 0
9.40486 5.87309 0
12.3975 5.92682 0
15.394 5.99536 0
15.7942 6.00068 0
15.81 4.99963 0
15.8138 3.99888 0
15.8126 2.99852 0
15.8085 1.9986 0
15.8036 0.999093 0
15.8 0 0
15.4 0 0
15.4036 1.00002 0
15.4085 1.99962 0
15.4126 2.99881 0
15.4138 3.99759 0
15.41 4.99595 0
12.4127 4.92739 0
9.41097 4.87361 0
6.40466 4.87371 0
3.39885 4.92822 0
0.39745 4.9979 0
0.39193 3.99916 0
0.391505 2.99999 0
0.39411 2.00041 0
0.397661 1.00041 0
0.4 0 0
      </DataArray>
    </Points>
    <Cells>
      <DataArray type="Int32" Name="connectivity" format="ascii">
0 1
1 2
2 3
3 4
4 5
5 6
6 7
7 8
8 9
9 10
10 11
11 12
12 13
13 14
14 15
15 16
16 17
17 18
18 19
19 20
20 21
21 22
22 23
23 24
24 25
25 26
26 27
27 28
28 29
29 30
30 31
31 32
32 33
33 34
34 35
0 35
0 34
1 34
1 33
2 33
2 32
3 32
3 31
4 31
4 30
5 30
5 7
30 7
30 8
29 8
29 9
28 9
28 10
27 10
27 11
26 11
26 12
25 12
25 13
25 14
24 14
24 15
23 15
23 16
22 16
22 17
21 17
21 18
20 18
      </DataArray>
      <DataArray type="Int32" Name="offsets" format="ascii">
2
4
6
8
10
12
14
16
18
20
22
24
26
28
30
32
34
36
38
40
42
44
46
48
50
52
54
56
58
60
62
64
66
68
70
72
74
76
78
80
82
84
86
88
90
92
94
96
98
100
102
104
106
108
110
112
114
116
118
120
122
124
126
128
130
132
134
136
138
      </DataArray>
      <DataArray type="UInt8" Name="types" format="ascii">
4
4
4
4
4
4
4
4
4
4
4
4
4
4
4
4
4
4
4
4
4
4
4
4
4
4
4
4
4
4
4
4
4
4
4
4
4
4
4
4
4
4
4
4
4
4
4
4
4
4
4
4
4
4
4
4
4
4
4
4
4
4
4
4
4
4
4
4
4
      </DataArray>
    </Cells>
    <PointData>
      <DataArray type="Float64" NumberOfComponents="3" Name="Displacement" format="ascii">
0 0 0
-0.0024044 -0.000458268 0
-0.00595553 -0.000503029 0
-0.0085608 -0.000129717 0
-0.00813015 0.000657945 0
-0.00233365 0.0018343 0
0.0142621 0.00169658 0
0.014229 -0.00344672 0
0.0148927 -0.0714583 0
0.0117002 -0.126349 0
0.00485986 -0.126907 0
-0.00246029 -0.0731816 0
-0.00595106 -0.00464311 0
-0.00579879 0.000680378 0
0.00995633 -0.000367097 0
0.0137516 -0.00112473 0
0.0125592 -0.00147597 0
0.00846098 -0.00140267 0
0.00355276 -0.000907245 0
0 0 0
0 0 0
0.00362079 2.35514e-05 0
0.0085292 -0.000376701 0
0.0126265 -0.00119139 0
0.0138214 -0.00241389 0
0.0100443 -0.00405334 0
0.0127119 -0.0726055 0
0.0109674 -0.126394 0
0.00465995 -0.126287 0
-0.00114804 -0.0717826 0
-0.00254982 -0.00210218 0
-0.00806957 -0.000841457 0
-0.00849534 -9.61576e-06 0
-0.00589008 0.000409054 0
-0.00233891 0.00041378 0
0 0 0
      </DataArray> 
      <DataArray type="Float64" NumberOfComponents="3" Name="Velocity" format="ascii">
0 0 0
0 0 0
0 0 0
0 0 0
0 0 0
0 0 0
0 0 0
0 0 0
0 0 0
0 0 0
0 0 0
0 0 0
0 0 0
0 0 0
0 0 0
0 0 0
0 0 0
0 0 0
0 0 0
0 0 0
0 0 0
0 0 0
0 0 0
0 0 0
0 0 0
0 0 0
0 0 0
0 0 0
0 0 0
0 0 0
0 0 0
0 0 0
0 0 0
0 0 0
0 0 0
0 0 0
      </DataArray> 
      <DataArray type="Float64" NumberOfComponents="3" Name="Acceleration" format="ascii">
0 0 0
0 0 0
0 0 0
0 0 0
0 0 0
0 0 0
0 0 0
0 0 0
0 0 0
0 0 0
0 0 0
0 0 0
0 0 0
0 0 0
0 0 0
0 0 0
0 0 0
0 0 0
0 0 0
0 0 0
0 0 0
0 0 0
0 0 0
0 0 0
0 0 0
0 0 0
0 0 0
0 0 0
0 0 0
0 0 0
0 0 0
0 0 0
0 0 0
0 0 0
0 0 0
0 0 0
      </DataArray> 
    </PointData>
    <CellData>
    </CellData>
  </Piece>
  </UnstructuredGrid>
</VTKFile>
