<?xml version="1.0"?>
<VTKFile type="UnstructuredGrid">
  <UnstructuredGrid>
  <Piece NumberOfPoints="36"  NumberOfCells="69">
    <Points>
      <DataArray type="Float64" NumberOfComponents="3" format="ascii">
0 0 0
-0.00142533 0.999728 0
-0.00354456 1.9997 0
-0.00513155 2.99991 0
-0.00496094 4.00038 0
-0.00166207 5.00107 0
0.00798133 6.00102 0
0.40797 5.99804 0
3.40855 5.95848 0
6.40682 5.9265 0
9.40284 5.92616 0
12.3987 5.95746 0
15.3969 5.99734 0
15.797 6.00042 0
15.8061 4.99978 0
15.8082 3.99933 0
15.8075 2.99913 0
15.805 1.99917 0
15.8021 0.999466 0
15.8 0 0
15.4 0 0
15.4021 1.00002 0
15.405 1.99979 0
15.4075 2.99932 0
15.4083 3.99861 0
15.4061 4.99765 0
12.4075 4.95776 0
9.4064 4.92645 0
6.40272 4.92652 0
3.39922 4.95826 0
0.398217 4.9988 0
0.395076 3.99953 0
0.394907 3.00001 0
0.396494 2.00025 0
0.398613 1.00025 0
0.4 0 0
      </DataArray>
    </Points>
    <Cells>
      <DataArray type="Int32" Name="connectivity" format="ascii">
0 1
1 2
2 3
3 4
4 5
5 6
6 7
7 8
8 9
9 10
10 11
11 12
12 13
13 14
14 15
15 16
16 17
17 18
18 19
19 20
20 21
21 22
22 23
23 24
24 25
25 26
26 27
27 28
28 29
29 30
30 31
31 32
32 33
33 34
34 35
0 35
0 34
1 34
1 33
2 33
2 32
3 32
3 31
4 31
4 30
5 30
5 7
30 7
30 8
29 8
29 9
28 9
28 10
27 10
27 11
26 11
26 12
25 12
25 13
25 14
24 14
24 15
23 15
23 16
22 16
22 17
21 17
21 18
20 18
      </DataArray>
      <DataArray type="Int32" Name="offsets" format="ascii">
2
4
6
8
10
12
14
16
18
20
22
24
26
28
30
32
34
36
38
40
42
44
46
48
50
52
54
56
58
60
62
64
66
68
70
72
74
76
78
80
82
84
86
88
90
92
94
96
98
100
102
104
106
108
110
112
114
116
118
120
122
124
126
128
130
132
134
136
138
      </DataArray>
      <DataArray type="UInt8" Name="types" format="ascii">
4
4
4
4
4
4
4
4
4
4
4
4
4
4
4
4
4
4
4
4
4
4
4
4
4
4
4
4
4
4
4
4
4
4
4
4
4
4
4
4
4
4
4
4
4
4
4
4
4
4
4
4
4
4
4
4
4
4
4
4
4
4
4
4
4
4
4
4
4
      </DataArray>
    </Cells>
    <PointData>
      <DataArray type="Float64" NumberOfComponents="3" Name="Displacement" format="ascii">
0 0 0
-0.00142533 -0.00027235 0
-0.00354456 -0.000301241 0
-0.00513155 -8.50497e-05 0
-0.00496094 0.000375081 0
-0.00166207 0.00107054 0
0.00798133 0.00102404 0
0.00797023 -0.00195613 0
0.00855141 -0.0415172 0
0.00681746 -0.0735006 0
0.00283994 -0.0738401 0
-0.0013017 -0.0425439 0
-0.00314075 -0.00266016 0
-0.00304258 0.000420802 0
0.00609961 -0.000224609 0
0.00822936 -0.000668342 0
0.0074558 -0.000870721 0
0.00500152 -0.000825717 0
0.00209379 -0.000534284 0
0 0 0
0 0 0
0.00213341 1.97247e-05 0
0.00504122 -0.000207652 0
0.00749516 -0.000678902 0
0.00826953 -0.00139165 0
0.00614587 -0.00234889 0
0.0075218 -0.0422371 0
0.0063983 -0.0735546 0
0.00272386 -0.0734797 0
-0.000779504 -0.0417392 0
-0.00178271 -0.00120404 0
-0.00492382 -0.000471907 0
-0.00509283 1.16942e-05 0
-0.00350586 0.000251998 0
-0.00138661 0.000248632 0
0 0 0
      </DataArray> 
      <DataArray type="Float64" NumberOfComponents="3" Name="Velocity" format="ascii">
0 0 0
0 0 0
0 0 0
0 0 0
0 0 0
0 0 0
0 0 0
0 0 0
0 0 0
0 0 0
0 0 0
0 0 0
0 0 0
0 0 0
0 0 0
0 0 0
0 0 0
0 0 0
0 0 0
0 0 0
0 0 0
0 0 0
0 0 0
0 0 0
0 0 0
0 0 0
0 0 0
0 0 0
0 0 0
0 0 0
0 0 0
0 0 0
0 0 0
0 0 0
0 0 0
0 0 0
      </DataArray> 
      <DataArray type="Float64" NumberOfComponents="3" Name="Acceleration" format="ascii">
0 0 0
0 0 0
0 0 0
0 0 0
0 0 0
0 0 0
0 0 0
0 0 0
0 0 0
0 0 0
0 0 0
0 0 0
0 0 0
0 0 0
0 0 0
0 0 0
0 0 0
0 0 0
0 0 0
0 0 0
0 0 0
0 0 0
0 0 0
0 0 0
0 0 0
0 0 0
0 0 0
0 0 0
0 0 0
0 0 0
0 0 0
0 0 0
0 0 0
0 0 0
0 0 0
0 0 0
      </DataArray> 
    </PointData>
    <CellData>
    </CellData>
  </Piece>
  </UnstructuredGrid>
</VTKFile>
