<?xml version="1.0"?>
<VTKFile type="UnstructuredGrid">
  <UnstructuredGrid>
  <Piece NumberOfPoints="36"  NumberOfCells="69">
    <Points>
      <DataArray type="Float64" NumberOfComponents="3" format="ascii">
0 0 0
-0.0023677 0.999549 0
-0.00586555 1.9995 0
-0.00843381 2.99987 0
-0.00801521 4.00065 0
-0.00231604 5.00181 0
0.0140139 6.00167 0
0.413982 5.99661 0
3.41465 5.92969 0
6.41151 5.87567 0
9.40478 5.87512 0
12.3976 5.92799 0
15.3942 5.99543 0
15.7943 6.00067 0
15.8098 4.99964 0
15.8135 3.99889 0
15.8124 2.99855 0
15.8083 1.99862 0
15.8035 0.999107 0
15.8 0 0
15.4 0 0
15.4036 1.00002 0
15.4084 1.99963 0
15.4124 2.99883 0
15.4136 3.99763 0
15.4099 4.99601 0
12.4125 4.92855 0
9.41079 4.87562 0
6.40459 4.87573 0
3.39886 4.92937 0
0.397472 4.99793 0
0.392045 3.99917 0
0.391631 2.99999 0
0.394199 2.0004 0
0.397697 1.00041 0
0.4 0 0
      </DataArray>
    </Points>
    <Cells>
      <DataArray type="Int32" Name="connectivity" format="ascii">
0 1
1 2
2 3
3 4
4 5
5 6
6 7
7 8
8 9
9 10
10 11
11 12
12 13
13 14
14 15
15 16
16 17
17 18
18 19
19 20
20 21
21 22
22 23
23 24
24 25
25 26
26 27
27 28
28 29
29 30
30 31
31 32
32 33
33 34
34 35
0 35
0 34
1 34
1 33
2 33
2 32
3 32
3 31
4 31
4 30
5 30
5 7
30 7
30 8
29 8
29 9
28 9
28 10
27 10
27 11
26 11
26 12
25 12
25 13
25 14
24 14
24 15
23 15
23 16
22 16
22 17
21 17
21 18
20 18
      </DataArray>
      <DataArray type="Int32" Name="offsets" format="ascii">
2
4
6
8
10
12
14
16
18
20
22
24
26
28
30
32
34
36
38
40
42
44
46
48
50
52
54
56
58
60
62
64
66
68
70
72
74
76
78
80
82
84
86
88
90
92
94
96
98
100
102
104
106
108
110
112
114
116
118
120
122
124
126
128
130
132
134
136
138
      </DataArray>
      <DataArray type="UInt8" Name="types" format="ascii">
4
4
4
4
4
4
4
4
4
4
4
4
4
4
4
4
4
4
4
4
4
4
4
4
4
4
4
4
4
4
4
4
4
4
4
4
4
4
4
4
4
4
4
4
4
4
4
4
4
4
4
4
4
4
4
4
4
4
4
4
4
4
4
4
4
4
4
4
4
      </DataArray>
    </Cells>
    <PointData>
      <DataArray type="Float64" NumberOfComponents="3" Name="Displacement" format="ascii">
0 0 0
-0.0023677 -0.00045132 0
-0.00586555 -0.000495554 0
-0.00843381 -0.000128273 0
-0.00801521 0.00064693 0
-0.00231604 0.00180522 0
0.0140139 0.00167188 0
0.0139819 -0.00338849 0
0.0146475 -0.0703134 0
0.011514 -0.124331 0
0.00478303 -0.12488 0
-0.00241264 -0.0720107 0
-0.00583526 -0.00456629 0
-0.0056848 0.000671125 0
0.00981713 -0.000361954 0
0.0135467 -0.00110769 0
0.0123682 -0.00145318 0
0.00833093 -0.00138089 0
0.00349774 -0.000893172 0
0 0 0
0 0 0
0.00356469 2.35625e-05 0
0.00839807 -0.000369948 0
0.0124344 -0.00117146 0
0.0136154 -0.00237453 0
0.00990337 -0.00398801 0
0.012517 -0.0714456 0
0.0107934 -0.124376 0
0.00458633 -0.124271 0
-0.0011369 -0.0706346 0
-0.00252842 -0.00206737 0
-0.00795547 -0.000826885 0
-0.00836936 -8.3548e-06 0
-0.0058011 0.00040342 0
-0.00230322 0.000407679 0
0 0 0
      </DataArray> 
      <DataArray type="Float64" NumberOfComponents="3" Name="Velocity" format="ascii">
0 0 0
0 0 0
0 0 0
0 0 0
0 0 0
0 0 0
0 0 0
0 0 0
0 0 0
0 0 0
0 0 0
0 0 0
0 0 0
0 0 0
0 0 0
0 0 0
0 0 0
0 0 0
0 0 0
0 0 0
0 0 0
0 0 0
0 0 0
0 0 0
0 0 0
0 0 0
0 0 0
0 0 0
0 0 0
0 0 0
0 0 0
0 0 0
0 0 0
0 0 0
0 0 0
0 0 0
      </DataArray> 
      <DataArray type="Float64" NumberOfComponents="3" Name="Acceleration" format="ascii">
0 0 0
0 0 0
0 0 0
0 0 0
0 0 0
0 0 0
0 0 0
0 0 0
0 0 0
0 0 0
0 0 0
0 0 0
0 0 0
0 0 0
0 0 0
0 0 0
0 0 0
0 0 0
0 0 0
0 0 0
0 0 0
0 0 0
0 0 0
0 0 0
0 0 0
0 0 0
0 0 0
0 0 0
0 0 0
0 0 0
0 0 0
0 0 0
0 0 0
0 0 0
0 0 0
0 0 0
      </DataArray> 
    </PointData>
    <CellData>
    </CellData>
  </Piece>
  </UnstructuredGrid>
</VTKFile>
