<?xml version="1.0"?>
<VTKFile type="UnstructuredGrid">
  <UnstructuredGrid>
  <Piece NumberOfPoints="36"  NumberOfCells="69">
    <Points>
      <DataArray type="Float64" NumberOfComponents="3" format="ascii">
0 0 0
-0.00183127 0.99965 0
-0.00454677 1.99961 0
-0.00656361 2.99989 0
-0.00630032 4.00049 0
-0.00199032 5.00138 0
0.0105012 6.00131 0
0.410482 5.99744 0
3.41113 5.94622 0
6.40882 5.90484 0
9.40367 5.9044 0
12.3982 5.9449 0
15.3958 5.99653 0
15.7959 6.00053 0
15.8077 4.99972 0
15.8105 3.99914 0
15.8096 2.99888 0
15.8064 1.99894 0
15.8027 0.999312 0
15.8 0 0
15.4 0 0
15.4027 1.00002 0
15.4065 1.99973 0
15.4096 2.99911 0
15.4106 3.99819 0
15.4078 4.99695 0
12.4097 4.94531 0
9.40827 4.90478 0
6.40352 4.90487 0
3.39905 4.94595 0
0.397851 4.99843 0
0.393747 3.99938 0
0.393486 3.00001 0
0.395503 2.00032 0
0.398219 1.00032 0
0.4 0 0
      </DataArray>
    </Points>
    <Cells>
      <DataArray type="Int32" Name="connectivity" format="ascii">
0 1
1 2
2 3
3 4
4 5
5 6
6 7
7 8
8 9
9 10
10 11
11 12
12 13
13 14
14 15
15 16
16 17
17 18
18 19
19 20
20 21
21 22
22 23
23 24
24 25
25 26
26 27
27 28
28 29
29 30
30 31
31 32
32 33
33 34
34 35
0 35
0 34
1 34
1 33
2 33
2 32
3 32
3 31
4 31
4 30
5 30
5 7
30 7
30 8
29 8
29 9
28 9
28 10
27 10
27 11
26 11
26 12
25 12
25 13
25 14
24 14
24 15
23 15
23 16
22 16
22 17
21 17
21 18
20 18
      </DataArray>
      <DataArray type="Int32" Name="offsets" format="ascii">
2
4
6
8
10
12
14
16
18
20
22
24
26
28
30
32
34
36
38
40
42
44
46
48
50
52
54
56
58
60
62
64
66
68
70
72
74
76
78
80
82
84
86
88
90
92
94
96
98
100
102
104
106
108
110
112
114
116
118
120
122
124
126
128
130
132
134
136
138
      </DataArray>
      <DataArray type="UInt8" Name="types" format="ascii">
4
4
4
4
4
4
4
4
4
4
4
4
4
4
4
4
4
4
4
4
4
4
4
4
4
4
4
4
4
4
4
4
4
4
4
4
4
4
4
4
4
4
4
4
4
4
4
4
4
4
4
4
4
4
4
4
4
4
4
4
4
4
4
4
4
4
4
4
4
      </DataArray>
    </Cells>
    <PointData>
      <DataArray type="Float64" NumberOfComponents="3" Name="Displacement" format="ascii">
0 0 0
-0.00183127 -0.000349571 0
-0.00454677 -0.000385486 0
-0.00656361 -0.000105077 0
-0.00630032 0.000489659 0
-0.00199032 0.00138424 0
0.0105012 0.00130622 0
0.0104825 -0.00255862 0
0.0111314 -0.053782 0
0.0088209 -0.0951648 0
0.00367012 -0.0955962 0
-0.00175422 -0.0550985 0
-0.00423704 -0.00346592 0
-0.004115 0.000531564 0
0.00773403 -0.000284978 0
0.0105329 -0.000857951 0
0.0095738 -0.00112101 0
0.00643342 -0.00106396 0
0.00269653 -0.000688309 0
0 0 0
0 0 0
0.00274781 2.23317e-05 0
0.00648482 -0.00027499 0
0.00962465 -0.000886593 0
0.0105852 -0.00180859 0
0.00779651 -0.00304606 0
0.00967133 -0.0546862 0
0.00827441 -0.0952196 0
0.00351972 -0.0951296 0
-0.000949952 -0.0540517 0
-0.00214922 -0.00156892 0
-0.00625324 -0.000620375 0
-0.00651381 5.91631e-06 0
-0.004497 0.00031879 0
-0.00178148 0.000317698 0
0 0 0
      </DataArray> 
      <DataArray type="Float64" NumberOfComponents="3" Name="Velocity" format="ascii">
0 0 0
0 0 0
0 0 0
0 0 0
0 0 0
0 0 0
0 0 0
0 0 0
0 0 0
0 0 0
0 0 0
0 0 0
0 0 0
0 0 0
0 0 0
0 0 0
0 0 0
0 0 0
0 0 0
0 0 0
0 0 0
0 0 0
0 0 0
0 0 0
0 0 0
0 0 0
0 0 0
0 0 0
0 0 0
0 0 0
0 0 0
0 0 0
0 0 0
0 0 0
0 0 0
0 0 0
      </DataArray> 
      <DataArray type="Float64" NumberOfComponents="3" Name="Acceleration" format="ascii">
0 0 0
0 0 0
0 0 0
0 0 0
0 0 0
0 0 0
0 0 0
0 0 0
0 0 0
0 0 0
0 0 0
0 0 0
0 0 0
0 0 0
0 0 0
0 0 0
0 0 0
0 0 0
0 0 0
0 0 0
0 0 0
0 0 0
0 0 0
0 0 0
0 0 0
0 0 0
0 0 0
0 0 0
0 0 0
0 0 0
0 0 0
0 0 0
0 0 0
0 0 0
0 0 0
0 0 0
      </DataArray> 
    </PointData>
    <CellData>
    </CellData>
  </Piece>
  </UnstructuredGrid>
</VTKFile>
