<?xml version="1.0"?>
<VTKFile type="UnstructuredGrid">
  <UnstructuredGrid>
  <Piece NumberOfPoints="36"  NumberOfCells="69">
    <Points>
      <DataArray type="Float64" NumberOfComponents="3" format="ascii">
0 0 0
-0.00156947 0.9997 0
-0.00390082 1.99967 0
-0.00564164 2.99991 0
-0.0054405 4.00042 0
-0.00178643 5.00118 0
0.00886282 6.00112 0
0.408849 5.99783 0
3.40946 5.95415 0
6.40753 5.91885 0
9.40313 5.91847 0
12.3985 5.95302 0
15.3965 5.99706 0
15.7966 6.00046 0
15.8067 4.99975 0
15.809 3.99926 0
15.8082 2.99904 0
15.8055 1.99909 0
15.8023 0.999411 0
15.8 0 0
15.4 0 0
15.4024 1.00002 0
15.4056 1.99977 0
15.4083 2.99925 0
15.4091 3.99846 0
15.4067 4.99741 0
12.4083 4.95336 0
9.40706 4.91879 0
6.40301 4.91887 0
3.39916 4.95391 0
0.39808 4.99867 0
0.3946 3.99948 0
0.394401 3.00001 0
0.396142 2.00028 0
0.398473 1.00027 0
0.4 0 0
      </DataArray>
    </Points>
    <Cells>
      <DataArray type="Int32" Name="connectivity" format="ascii">
0 1
1 2
2 3
3 4
4 5
5 6
6 7
7 8
8 9
9 10
10 11
11 12
12 13
13 14
14 15
15 16
16 17
17 18
18 19
19 20
20 21
21 22
22 23
23 24
24 25
25 26
26 27
27 28
28 29
29 30
30 31
31 32
32 33
33 34
34 35
0 35
0 34
1 34
1 33
2 33
2 32
3 32
3 31
4 31
4 30
5 30
5 7
30 7
30 8
29 8
29 9
28 9
28 10
27 10
27 11
26 11
26 12
25 12
25 13
25 14
24 14
24 15
23 15
23 16
22 16
22 17
21 17
21 18
20 18
      </DataArray>
      <DataArray type="Int32" Name="offsets" format="ascii">
2
4
6
8
10
12
14
16
18
20
22
24
26
28
30
32
34
36
38
40
42
44
46
48
50
52
54
56
58
60
62
64
66
68
70
72
74
76
78
80
82
84
86
88
90
92
94
96
98
100
102
104
106
108
110
112
114
116
118
120
122
124
126
128
130
132
134
136
138
      </DataArray>
      <DataArray type="UInt8" Name="types" format="ascii">
4
4
4
4
4
4
4
4
4
4
4
4
4
4
4
4
4
4
4
4
4
4
4
4
4
4
4
4
4
4
4
4
4
4
4
4
4
4
4
4
4
4
4
4
4
4
4
4
4
4
4
4
4
4
4
4
4
4
4
4
4
4
4
4
4
4
4
4
4
      </DataArray>
    </Cells>
    <PointData>
      <DataArray type="Float64" NumberOfComponents="3" Name="Displacement" format="ascii">
0 0 0
-0.00156947 -0.000299789 0
-0.00390082 -0.000331243 0
-0.00564164 -9.23937e-05 0
-0.0054405 0.000415343 0
-0.00178643 0.00118146 0
0.00886282 0.00112476 0
0.00884927 -0.00216762 0
0.00945977 -0.0458486 0
0.00752553 -0.081154 0
0.00313357 -0.0815264 0
-0.001458 -0.0469783 0
-0.00351919 -0.00294368 0
-0.00341231 0.000460622 0
0.0066855 -0.000246244 0
0.00904949 -0.000735721 0
0.00820816 -0.000959481 0
0.00550957 -0.000910153 0
0.00230747 -0.000588877 0
0 0 0
0 0 0
0.00235121 2.08112e-05 0
0.0055534 -0.000231127 0
0.00825159 -0.000751889 0
0.00909392 -0.00153861 0
0.00673735 -0.00259493 0
0.00828467 -0.0466351 0
0.00706158 -0.0812091 0
0.00300537 -0.0811285 0
-0.000842797 -0.0460884 0
-0.00192045 -0.00133242 0
-0.0053998 -0.000523874 0
-0.00559899 1.0126e-05 0
-0.0038582 0.000275979 0
-0.00152682 0.000273249 0
0 0 0
      </DataArray> 
      <DataArray type="Float64" NumberOfComponents="3" Name="Velocity" format="ascii">
0 0 0
0 0 0
0 0 0
0 0 0
0 0 0
0 0 0
0 0 0
0 0 0
0 0 0
0 0 0
0 0 0
0 0 0
0 0 0
0 0 0
0 0 0
0 0 0
0 0 0
0 0 0
0 0 0
0 0 0
0 0 0
0 0 0
0 0 0
0 0 0
0 0 0
0 0 0
0 0 0
0 0 0
0 0 0
0 0 0
0 0 0
0 0 0
0 0 0
0 0 0
0 0 0
0 0 0
      </DataArray> 
      <DataArray type="Float64" NumberOfComponents="3" Name="Acceleration" format="ascii">
0 0 0
0 0 0
0 0 0
0 0 0
0 0 0
0 0 0
0 0 0
0 0 0
0 0 0
0 0 0
0 0 0
0 0 0
0 0 0
0 0 0
0 0 0
0 0 0
0 0 0
0 0 0
0 0 0
0 0 0
0 0 0
0 0 0
0 0 0
0 0 0
0 0 0
0 0 0
0 0 0
0 0 0
0 0 0
0 0 0
0 0 0
0 0 0
0 0 0
0 0 0
0 0 0
0 0 0
      </DataArray> 
    </PointData>
    <CellData>
    </CellData>
  </Piece>
  </UnstructuredGrid>
</VTKFile>
