<?xml version="1.0"?>
<VTKFile type="UnstructuredGrid">
  <UnstructuredGrid>
  <Piece NumberOfPoints="36"  NumberOfCells="69">
    <Points>
      <DataArray type="Float64" NumberOfComponents="3" format="ascii">
0 0 0
-0.00253864 0.999516 0
-0.00628439 1.99947 0
-0.00902419 2.99987 0
-0.00854789 4.0007 0
-0.00239281 5.00194 0
0.0151789 6.00179 0
0.415142 5.99634 0
3.41579 5.92434 0
6.41238 5.86624 0
9.40514 5.86566 0
12.3974 5.92252 0
15.3936 5.99507 0
15.7938 6.00071 0
15.8105 4.99961 0
15.8145 3.99881 0
15.8133 2.99844 0
15.8089 1.99852 0
15.8038 0.999041 0
15.8 0 0
15.4 0 0
15.4038 1.00002 0
15.409 1.9996 0
15.4133 2.99874 0
15.4146 3.99744 0
15.4106 4.99571 0
12.4134 4.92314 0
9.41161 4.8662 0
6.40493 4.86631 0
3.39881 4.924 0
0.397377 4.99777 0
0.391516 3.9991 0
0.391045 2.99999 0
0.393785 2.00043 0
0.397531 1.00044 0
0.4 0 0
      </DataArray>
    </Points>
    <Cells>
      <DataArray type="Int32" Name="connectivity" format="ascii">
0 1
1 2
2 3
3 4
4 5
5 6
6 7
7 8
8 9
9 10
10 11
11 12
12 13
13 14
14 15
15 16
16 17
17 18
18 19
19 20
20 21
21 22
22 23
23 24
24 25
25 26
26 27
27 28
28 29
29 30
30 31
31 32
32 33
33 34
34 35
0 35
0 34
1 34
1 33
2 33
2 32
3 32
3 31
4 31
4 30
5 30
5 7
30 7
30 8
29 8
29 9
28 9
28 10
27 10
27 11
26 11
26 12
25 12
25 13
25 14
24 14
24 15
23 15
23 16
22 16
22 17
21 17
21 18
20 18
      </DataArray>
      <DataArray type="Int32" Name="offsets" format="ascii">
2
4
6
8
10
12
14
16
18
20
22
24
26
28
30
32
34
36
38
40
42
44
46
48
50
52
54
56
58
60
62
64
66
68
70
72
74
76
78
80
82
84
86
88
90
92
94
96
98
100
102
104
106
108
110
112
114
116
118
120
122
124
126
128
130
132
134
136
138
      </DataArray>
      <DataArray type="UInt8" Name="types" format="ascii">
4
4
4
4
4
4
4
4
4
4
4
4
4
4
4
4
4
4
4
4
4
4
4
4
4
4
4
4
4
4
4
4
4
4
4
4
4
4
4
4
4
4
4
4
4
4
4
4
4
4
4
4
4
4
4
4
4
4
4
4
4
4
4
4
4
4
4
4
4
      </DataArray>
    </Cells>
    <PointData>
      <DataArray type="Float64" NumberOfComponents="3" Name="Displacement" format="ascii">
0 0 0
-0.00253864 -0.000483666 0
-0.00628439 -0.000530303 0
-0.00902419 -0.000134832 0
-0.00854789 0.000698522 0
-0.00239281 0.00194097 0
0.0151789 0.00178658 0
0.0151418 -0.00366136 0
0.0157946 -0.0756619 0
0.0123836 -0.133759 0
0.00514164 -0.134345 0
-0.00263751 -0.07748 0
-0.00638187 -0.00492581 0
-0.00622314 0.000713889 0
0.0104617 -0.000385772 0
0.0144995 -0.00118703 0
0.0132575 -0.00155937 0
0.0089369 -0.0014824 0
0.00375423 -0.00095878 0
0 0 0
0 0 0
0.00382623 2.34042e-05 0
0.00900912 -0.000401687 0
0.0133287 -0.00126481 0
0.0145736 -0.00255858 0
0.0105561 -0.00429331 0
0.013425 -0.0768629 0
0.011606 -0.133798 0
0.00492996 -0.133689 0
-0.00118691 -0.0759967 0
-0.00262298 -0.00223028 0
-0.00848424 -0.000895255 0
-0.00895506 -1.45455e-05 0
-0.00621525 0.000429488 0
-0.00246946 0.000436033 0
0 0 0
      </DataArray> 
      <DataArray type="Float64" NumberOfComponents="3" Name="Velocity" format="ascii">
0 0 0
0 0 0
0 0 0
0 0 0
0 0 0
0 0 0
0 0 0
0 0 0
0 0 0
0 0 0
0 0 0
0 0 0
0 0 0
0 0 0
0 0 0
0 0 0
0 0 0
0 0 0
0 0 0
0 0 0
0 0 0
0 0 0
0 0 0
0 0 0
0 0 0
0 0 0
0 0 0
0 0 0
0 0 0
0 0 0
0 0 0
0 0 0
0 0 0
0 0 0
0 0 0
0 0 0
      </DataArray> 
      <DataArray type="Float64" NumberOfComponents="3" Name="Acceleration" format="ascii">
0 0 0
0 0 0
0 0 0
0 0 0
0 0 0
0 0 0
0 0 0
0 0 0
0 0 0
0 0 0
0 0 0
0 0 0
0 0 0
0 0 0
0 0 0
0 0 0
0 0 0
0 0 0
0 0 0
0 0 0
0 0 0
0 0 0
0 0 0
0 0 0
0 0 0
0 0 0
0 0 0
0 0 0
0 0 0
0 0 0
0 0 0
0 0 0
0 0 0
0 0 0
0 0 0
0 0 0
      </DataArray> 
    </PointData>
    <CellData>
    </CellData>
  </Piece>
  </UnstructuredGrid>
</VTKFile>
