<?xml version="1.0"?>
<VTKFile type="UnstructuredGrid">
  <UnstructuredGrid>
  <Piece NumberOfPoints="36"  NumberOfCells="69">
    <Points>
      <DataArray type="Float64" NumberOfComponents="3" format="ascii">
0 0 0
-9.09355e-05 0.999983 0
-0.000227246 1.99998 0
-0.000331862 2.99999 0
-0.000327719 4.00002 0
-0.000128236 5.00007 0
0.000471374 6.00007 0
0.400471 5.99988 0
3.40052 5.99742 0
6.40043 5.99542 0
9.40018 5.9954 0
12.3999 5.99735 0
15.3998 5.99984 0
15.7998 6.00003 0
15.8004 4.99999 0
15.8005 3.99996 0
15.8005 2.99994 0
15.8003 1.99995 0
15.8001 0.999966 0
15.8 0 0
15.4 0 0
15.4001 1 0
15.4003 1.99999 0
15.4005 2.99996 0
15.4005 3.99991 0
15.4004 4.99985 0
12.4005 4.99737 0
9.4004 4.99542 0
6.40017 4.99542 0
3.39994 4.9974 0
0.399865 4.99993 0
0.399675 3.99997 0
0.399671 3 0
0.399775 2.00002 0
0.399912 1.00002 0
0.4 0 0
      </DataArray>
    </Points>
    <Cells>
      <DataArray type="Int32" Name="connectivity" format="ascii">
0 1
1 2
2 3
3 4
4 5
5 6
6 7
7 8
8 9
9 10
10 11
11 12
12 13
13 14
14 15
15 16
16 17
17 18
18 19
19 20
20 21
21 22
22 23
23 24
24 25
25 26
26 27
27 28
28 29
29 30
30 31
31 32
32 33
33 34
34 35
0 35
0 34
1 34
1 33
2 33
2 32
3 32
3 31
4 31
4 30
5 30
5 7
30 7
30 8
29 8
29 9
28 9
28 10
27 10
27 11
26 11
26 12
25 12
25 13
25 14
24 14
24 15
23 15
23 16
22 16
22 17
21 17
21 18
20 18
      </DataArray>
      <DataArray type="Int32" Name="offsets" format="ascii">
2
4
6
8
10
12
14
16
18
20
22
24
26
28
30
32
34
36
38
40
42
44
46
48
50
52
54
56
58
60
62
64
66
68
70
72
74
76
78
80
82
84
86
88
90
92
94
96
98
100
102
104
106
108
110
112
114
116
118
120
122
124
126
128
130
132
134
136
138
      </DataArray>
      <DataArray type="UInt8" Name="types" format="ascii">
4
4
4
4
4
4
4
4
4
4
4
4
4
4
4
4
4
4
4
4
4
4
4
4
4
4
4
4
4
4
4
4
4
4
4
4
4
4
4
4
4
4
4
4
4
4
4
4
4
4
4
4
4
4
4
4
4
4
4
4
4
4
4
4
4
4
4
4
4
      </DataArray>
    </Cells>
    <PointData>
      <DataArray type="Float64" NumberOfComponents="3" Name="Displacement" format="ascii">
0 0 0
-9.09355e-05 -1.74235e-05 0
-0.000227246 -1.94406e-05 0
-0.000331862 -6.04458e-06 0
-0.000327719 2.27608e-05 0
-0.000128236 6.69424e-05 0
0.000471374 6.67626e-05 0
0.000471332 -0.000117852 0
0.000523366 -0.00258093 0
0.000425469 -0.00457681 0
0.000177925 -0.00459919 0
-7.04716e-05 -0.00264682 0
-0.000169417 -0.000162322 0
-0.000162541 2.82333e-05 0
0.000404863 -1.48608e-05 0
0.000531134 -4.27102e-05 0
0.000476474 -5.51597e-05 0
0.000317938 -5.21866e-05 0
0.0001326 -3.37952e-05 0
0 0 0
0 0 0
0.000135067 1.72325e-06 0
0.000320407 -1.19749e-05 0
0.000478941 -4.10816e-05 0
0.000533604 -8.55871e-05 0
0.000407356 -0.000145502 0
0.000478755 -0.00263001 0
0.000399941 -0.00458247 0
0.000170713 -0.00457675 0
-5.76353e-05 -0.00259745 0
-0.000135341 -7.34521e-05 0
-0.000325261 -2.7932e-05 0
-0.000329398 2.16248e-06 0
-0.000224782 1.68514e-05 0
-8.84714e-05 1.61327e-05 0
0 0 0
      </DataArray> 
      <DataArray type="Float64" NumberOfComponents="3" Name="Velocity" format="ascii">
0 0 0
0 0 0
0 0 0
0 0 0
0 0 0
0 0 0
0 0 0
0 0 0
0 0 0
0 0 0
0 0 0
0 0 0
0 0 0
0 0 0
0 0 0
0 0 0
0 0 0
0 0 0
0 0 0
0 0 0
0 0 0
0 0 0
0 0 0
0 0 0
0 0 0
0 0 0
0 0 0
0 0 0
0 0 0
0 0 0
0 0 0
0 0 0
0 0 0
0 0 0
0 0 0
0 0 0
      </DataArray> 
      <DataArray type="Float64" NumberOfComponents="3" Name="Acceleration" format="ascii">
0 0 0
0 0 0
0 0 0
0 0 0
0 0 0
0 0 0
0 0 0
0 0 0
0 0 0
0 0 0
0 0 0
0 0 0
0 0 0
0 0 0
0 0 0
0 0 0
0 0 0
0 0 0
0 0 0
0 0 0
0 0 0
0 0 0
0 0 0
0 0 0
0 0 0
0 0 0
0 0 0
0 0 0
0 0 0
0 0 0
0 0 0
0 0 0
0 0 0
0 0 0
0 0 0
0 0 0
      </DataArray> 
    </PointData>
    <CellData>
    </CellData>
  </Piece>
  </UnstructuredGrid>
</VTKFile>
