<?xml version="1.0"?>
<VTKFile type="UnstructuredGrid">
  <UnstructuredGrid>
  <Piece NumberOfPoints="36"  NumberOfCells="69">
    <Points>
      <DataArray type="Float64" NumberOfComponents="3" format="ascii">
0 0 0
-0.00228806 0.999564 0
-0.00567016 1.99952 0
-0.00815778 2.99987 0
-0.00776469 4.00062 0
-0.00227572 5.00174 0
0.0134787 6.00162 0
0.413449 5.99674 0
3.41412 5.93217 0
6.41111 5.88004 0
9.40462 5.87951 0
12.3977 5.93052 0
15.3944 5.9956 0
15.7946 6.00065 0
15.8095 4.99965 0
15.8131 3.99893 0
15.812 2.9986 0
15.808 1.99867 0
15.8034 0.999137 0
15.8 0 0
15.4 0 0
15.4034 1.00002 0
15.4081 1.99964 0
15.412 2.99887 0
15.4132 3.99771 0
15.4096 4.99615 0
12.4121 4.93107 0
9.41042 4.87999 0
6.40443 4.8801 0
3.39889 4.93185 0
0.39752 4.99801 0
0.392293 3.9992 0
0.391904 2.99999 0
0.394392 2.00039 0
0.397774 1.00039 0
0.4 0 0
      </DataArray>
    </Points>
    <Cells>
      <DataArray type="Int32" Name="connectivity" format="ascii">
0 1
1 2
2 3
3 4
4 5
5 6
6 7
7 8
8 9
9 10
10 11
11 12
12 13
13 14
14 15
15 16
16 17
17 18
18 19
19 20
20 21
21 22
22 23
23 24
24 25
25 26
26 27
27 28
28 29
29 30
30 31
31 32
32 33
33 34
34 35
0 35
0 34
1 34
1 33
2 33
2 32
3 32
3 31
4 31
4 30
5 30
5 7
30 7
30 8
29 8
29 9
28 9
28 10
27 10
27 11
26 11
26 12
25 12
25 13
25 14
24 14
24 15
23 15
23 16
22 16
22 17
21 17
21 18
20 18
      </DataArray>
      <DataArray type="Int32" Name="offsets" format="ascii">
2
4
6
8
10
12
14
16
18
20
22
24
26
28
30
32
34
36
38
40
42
44
46
48
50
52
54
56
58
60
62
64
66
68
70
72
74
76
78
80
82
84
86
88
90
92
94
96
98
100
102
104
106
108
110
112
114
116
118
120
122
124
126
128
130
132
134
136
138
      </DataArray>
      <DataArray type="UInt8" Name="types" format="ascii">
4
4
4
4
4
4
4
4
4
4
4
4
4
4
4
4
4
4
4
4
4
4
4
4
4
4
4
4
4
4
4
4
4
4
4
4
4
4
4
4
4
4
4
4
4
4
4
4
4
4
4
4
4
4
4
4
4
4
4
4
4
4
4
4
4
4
4
4
4
      </DataArray>
    </Cells>
    <PointData>
      <DataArray type="Float64" NumberOfComponents="3" Name="Displacement" format="ascii">
0 0 0
-0.00228806 -0.000436235 0
-0.00567016 -0.000479308 0
-0.00815778 -0.000125077 0
-0.00776469 0.00062314 0
-0.00227572 0.00174224 0
0.0134787 0.00161813 0
0.0134489 -0.00326276 0
0.0141175 -0.0678348 0
0.0111107 -0.11996 0
0.00461661 -0.120493 0
-0.00231039 -0.0694757 0
-0.00558684 -0.00440026 0
-0.00544037 0.000650911 0
0.00951355 -0.000350736 0
0.0131015 -0.00107067 0
0.0119536 -0.00140376 0
0.0080488 -0.00133368 0
0.00337843 -0.000862657 0
0 0 0
0 0 0
0.00344303 2.35439e-05 0
0.00811358 -0.000355407 0
0.0120176 -0.00112839 0
0.0131677 -0.00228939 0
0.00959608 -0.00384661 0
0.0120941 -0.0689343 0
0.0104164 -0.120008 0
0.00442685 -0.119904 0
-0.00111199 -0.0681492 0
-0.00247995 -0.00199215 0
-0.00770679 -0.000795458 0
-0.00809551 -5.7454e-06 0
-0.00560789 0.000391122 0
-0.00222576 0.000394414 0
0 0 0
      </DataArray> 
      <DataArray type="Float64" NumberOfComponents="3" Name="Velocity" format="ascii">
0 0 0
0 0 0
0 0 0
0 0 0
0 0 0
0 0 0
0 0 0
0 0 0
0 0 0
0 0 0
0 0 0
0 0 0
0 0 0
0 0 0
0 0 0
0 0 0
0 0 0
0 0 0
0 0 0
0 0 0
0 0 0
0 0 0
0 0 0
0 0 0
0 0 0
0 0 0
0 0 0
0 0 0
0 0 0
0 0 0
0 0 0
0 0 0
0 0 0
0 0 0
0 0 0
0 0 0
      </DataArray> 
      <DataArray type="Float64" NumberOfComponents="3" Name="Acceleration" format="ascii">
0 0 0
0 0 0
0 0 0
0 0 0
0 0 0
0 0 0
0 0 0
0 0 0
0 0 0
0 0 0
0 0 0
0 0 0
0 0 0
0 0 0
0 0 0
0 0 0
0 0 0
0 0 0
0 0 0
0 0 0
0 0 0
0 0 0
0 0 0
0 0 0
0 0 0
0 0 0
0 0 0
0 0 0
0 0 0
0 0 0
0 0 0
0 0 0
0 0 0
0 0 0
0 0 0
0 0 0
      </DataArray> 
    </PointData>
    <CellData>
    </CellData>
  </Piece>
  </UnstructuredGrid>
</VTKFile>
