<?xml version="1.0"?>
<VTKFile type="UnstructuredGrid">
  <UnstructuredGrid>
  <Piece NumberOfPoints="36"  NumberOfCells="69">
    <Points>
      <DataArray type="Float64" NumberOfComponents="3" format="ascii">
0 0 0
-0.00186853 0.999643 0
-0.00463855 1.99961 0
-0.00669431 2.99989 0
-0.00642147 4.0005 0
-0.00201698 5.00141 0
0.0107383 6.00133 0
0.410719 5.99739 0
3.41137 5.94508 0
6.40901 5.90283 0
9.40375 5.90239 0
12.3982 5.94374 0
15.3957 5.99646 0
15.7958 6.00054 0
15.8079 4.99971 0
15.8107 3.99912 0
15.8098 2.99886 0
15.8066 1.99891 0
15.8028 0.999298 0
15.8 0 0
15.4 0 0
15.4028 1.00002 0
15.4066 1.99972 0
15.4098 2.99909 0
15.4108 3.99815 0
15.4079 4.99689 0
12.4099 4.94416 0
9.40845 4.90278 0
6.40359 4.90287 0
3.39904 4.94481 0
0.397821 4.9984 0
0.393627 3.99937 0
0.393357 3.00001 0
0.395412 2.00032 0
0.398182 1.00032 0
0.4 0 0
      </DataArray>
    </Points>
    <Cells>
      <DataArray type="Int32" Name="connectivity" format="ascii">
0 1
1 2
2 3
3 4
4 5
5 6
6 7
7 8
8 9
9 10
10 11
11 12
12 13
13 14
14 15
15 16
16 17
17 18
18 19
19 20
20 21
21 22
22 23
23 24
24 25
25 26
26 27
27 28
28 29
29 30
30 31
31 32
32 33
33 34
34 35
0 35
0 34
1 34
1 33
2 33
2 32
3 32
3 31
4 31
4 30
5 30
5 7
30 7
30 8
29 8
29 9
28 9
28 10
27 10
27 11
26 11
26 12
25 12
25 13
25 14
24 14
24 15
23 15
23 16
22 16
22 17
21 17
21 18
20 18
      </DataArray>
      <DataArray type="Int32" Name="offsets" format="ascii">
2
4
6
8
10
12
14
16
18
20
22
24
26
28
30
32
34
36
38
40
42
44
46
48
50
52
54
56
58
60
62
64
66
68
70
72
74
76
78
80
82
84
86
88
90
92
94
96
98
100
102
104
106
108
110
112
114
116
118
120
122
124
126
128
130
132
134
136
138
      </DataArray>
      <DataArray type="UInt8" Name="types" format="ascii">
4
4
4
4
4
4
4
4
4
4
4
4
4
4
4
4
4
4
4
4
4
4
4
4
4
4
4
4
4
4
4
4
4
4
4
4
4
4
4
4
4
4
4
4
4
4
4
4
4
4
4
4
4
4
4
4
4
4
4
4
4
4
4
4
4
4
4
4
4
      </DataArray>
    </Cells>
    <PointData>
      <DataArray type="Float64" NumberOfComponents="3" Name="Displacement" format="ascii">
0 0 0
-0.00186853 -0.000356648 0
-0.00463855 -0.000393177 0
-0.00669431 -0.000106811 0
-0.00642147 0.00050036 0
-0.00201698 0.00141324 0
0.0107383 0.00133188 0
0.0107188 -0.00261499 0
0.0113716 -0.0549179 0
0.0090062 -0.09717 0
0.00374681 -0.0976098 0
-0.00179768 -0.0562608 0
-0.00434243 -0.003541 0
-0.0042183 0.00054151 0
0.00788155 -0.000290428 0
0.0107434 -0.000875326 0
0.00976801 -0.00114402 0
0.00656499 -0.00108589 0
0.00275199 -0.000702486 0
0 0 0
0 0 0
0.00280435 2.24998e-05 0
0.00661747 -0.000281361 0
0.00981992 -0.000905987 0
0.0107967 -0.00184733 0
0.0079456 -0.00311069 0
0.00986874 -0.0558385 0
0.00844785 -0.0972246 0
0.00359323 -0.0971333 0
-0.000964366 -0.0551916 0
-0.00217948 -0.00160292 0
-0.00637349 -0.00063433 0
-0.0066435 5.17271e-06 0
-0.00458777 0.000324802 0
-0.00181771 0.000323994 0
0 0 0
      </DataArray> 
      <DataArray type="Float64" NumberOfComponents="3" Name="Velocity" format="ascii">
0 0 0
0 0 0
0 0 0
0 0 0
0 0 0
0 0 0
0 0 0
0 0 0
0 0 0
0 0 0
0 0 0
0 0 0
0 0 0
0 0 0
0 0 0
0 0 0
0 0 0
0 0 0
0 0 0
0 0 0
0 0 0
0 0 0
0 0 0
0 0 0
0 0 0
0 0 0
0 0 0
0 0 0
0 0 0
0 0 0
0 0 0
0 0 0
0 0 0
0 0 0
0 0 0
0 0 0
      </DataArray> 
      <DataArray type="Float64" NumberOfComponents="3" Name="Acceleration" format="ascii">
0 0 0
0 0 0
0 0 0
0 0 0
0 0 0
0 0 0
0 0 0
0 0 0
0 0 0
0 0 0
0 0 0
0 0 0
0 0 0
0 0 0
0 0 0
0 0 0
0 0 0
0 0 0
0 0 0
0 0 0
0 0 0
0 0 0
0 0 0
0 0 0
0 0 0
0 0 0
0 0 0
0 0 0
0 0 0
0 0 0
0 0 0
0 0 0
0 0 0
0 0 0
0 0 0
0 0 0
      </DataArray> 
    </PointData>
    <CellData>
    </CellData>
  </Piece>
  </UnstructuredGrid>
</VTKFile>
