<?xml version="1.0"?>
<VTKFile type="UnstructuredGrid">
  <UnstructuredGrid>
  <Piece NumberOfPoints="36"  NumberOfCells="69">
    <Points>
      <DataArray type="Float64" NumberOfComponents="3" format="ascii">
0 0 0
-0.0017006 0.999675 0
-0.00422454 1.99964 0
-0.00610416 2.9999 0
-0.00587299 4.00045 0
-0.00189214 5.00128 0
0.00967735 6.00122 0
0.409661 5.99764 0
3.41029 5.95019 0
6.40817 5.91185 0
9.4034 5.91144 0
12.3984 5.94897 0
15.3961 5.9968 0
15.7962 6.0005 0
15.8072 4.99973 0
15.8098 3.9992 0
15.8089 2.99896 0
15.806 1.99901 0
15.8025 0.999361 0
15.8 0 0
15.4 0 0
15.4025 1.00002 0
15.406 1.99975 0
15.4089 2.99918 0
15.4098 3.99833 0
15.4073 4.99718 0
12.409 4.94934 0
9.40767 4.91179 0
6.40326 4.91188 0
3.3991 4.94993 0
0.397961 4.99855 0
0.394171 3.99943 0
0.393942 3.00001 0
0.395822 2.0003 0
0.398346 1.0003 0
0.4 0 0
      </DataArray>
    </Points>
    <Cells>
      <DataArray type="Int32" Name="connectivity" format="ascii">
0 1
1 2
2 3
3 4
4 5
5 6
6 7
7 8
8 9
9 10
10 11
11 12
12 13
13 14
14 15
15 16
16 17
17 18
18 19
19 20
20 21
21 22
22 23
23 24
24 25
25 26
26 27
27 28
28 29
29 30
30 31
31 32
32 33
33 34
34 35
0 35
0 34
1 34
1 33
2 33
2 32
3 32
3 31
4 31
4 30
5 30
5 7
30 7
30 8
29 8
29 9
28 9
28 10
27 10
27 11
26 11
26 12
25 12
25 13
25 14
24 14
24 15
23 15
23 16
22 16
22 17
21 17
21 18
20 18
      </DataArray>
      <DataArray type="Int32" Name="offsets" format="ascii">
2
4
6
8
10
12
14
16
18
20
22
24
26
28
30
32
34
36
38
40
42
44
46
48
50
52
54
56
58
60
62
64
66
68
70
72
74
76
78
80
82
84
86
88
90
92
94
96
98
100
102
104
106
108
110
112
114
116
118
120
122
124
126
128
130
132
134
136
138
      </DataArray>
      <DataArray type="UInt8" Name="types" format="ascii">
4
4
4
4
4
4
4
4
4
4
4
4
4
4
4
4
4
4
4
4
4
4
4
4
4
4
4
4
4
4
4
4
4
4
4
4
4
4
4
4
4
4
4
4
4
4
4
4
4
4
4
4
4
4
4
4
4
4
4
4
4
4
4
4
4
4
4
4
4
      </DataArray>
    </Cells>
    <PointData>
      <DataArray type="Float64" NumberOfComponents="3" Name="Displacement" format="ascii">
0 0 0
-0.0017006 -0.000324733 0
-0.00422454 -0.000358453 0
-0.00610416 -9.88538e-05 0
-0.00587299 0.000452372 0
-0.00189214 0.00128281 0
0.00967735 0.00121589 0
0.00966134 -0.00236234 0
0.0102935 -0.0498115 0
0.00817283 -0.0881538 0
0.00340179 -0.0885558 0
-0.00160436 -0.0510348 0
-0.00387377 -0.00320408 0
-0.0037592 0.000496381 0
0.00721322 -0.000265737 0
0.00979352 -0.000796968 0
0.00889232 -0.00104033 0
0.00597212 -0.000987117 0
0.00250218 -0.000638636 0
0 0 0
0 0 0
0.00254969 2.16464e-05 0
0.00601974 -0.000252898 0
0.00893946 -0.000819011 0
0.00984185 -0.00167333 0
0.00727032 -0.0028202 0
0.00897904 -0.0506574 0
0.00766774 -0.0882091 0
0.0032625 -0.0881236 0
-0.00089774 -0.0500666 0
-0.00203852 -0.00145034 0
-0.00582908 -0.000571865 0
-0.00605794 8.23882e-06 0
-0.00417834 0.000297543 0
-0.00165438 0.000295555 0
0 0 0
      </DataArray> 
      <DataArray type="Float64" NumberOfComponents="3" Name="Velocity" format="ascii">
0 0 0
0 0 0
0 0 0
0 0 0
0 0 0
0 0 0
0 0 0
0 0 0
0 0 0
0 0 0
0 0 0
0 0 0
0 0 0
0 0 0
0 0 0
0 0 0
0 0 0
0 0 0
0 0 0
0 0 0
0 0 0
0 0 0
0 0 0
0 0 0
0 0 0
0 0 0
0 0 0
0 0 0
0 0 0
0 0 0
0 0 0
0 0 0
0 0 0
0 0 0
0 0 0
0 0 0
      </DataArray> 
      <DataArray type="Float64" NumberOfComponents="3" Name="Acceleration" format="ascii">
0 0 0
0 0 0
0 0 0
0 0 0
0 0 0
0 0 0
0 0 0
0 0 0
0 0 0
0 0 0
0 0 0
0 0 0
0 0 0
0 0 0
0 0 0
0 0 0
0 0 0
0 0 0
0 0 0
0 0 0
0 0 0
0 0 0
0 0 0
0 0 0
0 0 0
0 0 0
0 0 0
0 0 0
0 0 0
0 0 0
0 0 0
0 0 0
0 0 0
0 0 0
0 0 0
0 0 0
      </DataArray> 
    </PointData>
    <CellData>
    </CellData>
  </Piece>
  </UnstructuredGrid>
</VTKFile>
