<?xml version="1.0"?>
<VTKFile type="UnstructuredGrid">
  <UnstructuredGrid>
  <Piece NumberOfPoints="36"  NumberOfCells="69">
    <Points>
      <DataArray type="Float64" NumberOfComponents="3" format="ascii">
0 0 0
-0.00127434 0.999756 0
-0.00317092 1.99973 0
-0.00459539 2.99992 0
-0.00445403 4.00033 0
-0.00152276 5.00095 0
0.00707329 6.00092 0
0.407064 5.99826 0
3.40761 5.96299 0
6.40608 5.93447 0
9.40253 5.93417 0
12.3989 5.96207 0
15.3972 5.99763 0
15.7973 6.00038 0
15.8055 4.9998 0
15.8074 3.9994 0
15.8067 2.99922 0
15.8045 1.99926 0
15.8019 0.999523 0
15.8 0 0
15.4 0 0
15.4019 1.00002 0
15.4045 1.99982 0
15.4067 2.9994 0
15.4074 3.99876 0
15.4055 4.99791 0
12.4067 4.96234 0
9.40571 4.93442 0
6.40243 4.93449 0
3.39929 4.96279 0
0.39837 4.99893 0
0.395579 3.99958 0
0.395439 3.00001 0
0.396864 2.00023 0
0.39876 1.00022 0
0.4 0 0
      </DataArray>
    </Points>
    <Cells>
      <DataArray type="Int32" Name="connectivity" format="ascii">
0 1
1 2
2 3
3 4
4 5
5 6
6 7
7 8
8 9
9 10
10 11
11 12
12 13
13 14
14 15
15 16
16 17
17 18
18 19
19 20
20 21
21 22
22 23
23 24
24 25
25 26
26 27
27 28
28 29
29 30
30 31
31 32
32 33
33 34
34 35
0 35
0 34
1 34
1 33
2 33
2 32
3 32
3 31
4 31
4 30
5 30
5 7
30 7
30 8
29 8
29 9
28 9
28 10
27 10
27 11
26 11
26 12
25 12
25 13
25 14
24 14
24 15
23 15
23 16
22 16
22 17
21 17
21 18
20 18
      </DataArray>
      <DataArray type="Int32" Name="offsets" format="ascii">
2
4
6
8
10
12
14
16
18
20
22
24
26
28
30
32
34
36
38
40
42
44
46
48
50
52
54
56
58
60
62
64
66
68
70
72
74
76
78
80
82
84
86
88
90
92
94
96
98
100
102
104
106
108
110
112
114
116
118
120
122
124
126
128
130
132
134
136
138
      </DataArray>
      <DataArray type="UInt8" Name="types" format="ascii">
4
4
4
4
4
4
4
4
4
4
4
4
4
4
4
4
4
4
4
4
4
4
4
4
4
4
4
4
4
4
4
4
4
4
4
4
4
4
4
4
4
4
4
4
4
4
4
4
4
4
4
4
4
4
4
4
4
4
4
4
4
4
4
4
4
4
4
4
4
      </DataArray>
    </Cells>
    <PointData>
      <DataArray type="Float64" NumberOfComponents="3" Name="Displacement" format="ascii">
0 0 0
-0.00127434 -0.000243584 0
-0.00317092 -0.000269714 0
-0.00459539 -7.70906e-05 0
-0.00445403 0.000333392 0
-0.00152276 0.0009549 0
0.00707329 0.000917954 0
0.00706447 -0.00173741 0
0.00760886 -0.0370073 0
0.0060796 -0.065529 0
0.00253369 -0.0658337 0
-0.00114305 -0.0379259 0
-0.00275686 -0.00236614 0
-0.00266806 0.000378525 0
0.00547949 -0.000201717 0
0.00736775 -0.000597706 0
0.00666735 -0.000777879 0
0.0044698 -0.000737455 0
0.00187037 -0.000477211 0
0 0 0
0 0 0
0.00190569 1.84003e-05 0
0.00450519 -0.000183568 0
0.00670246 -0.000603331 0
0.00740351 -0.00123899 0
0.00552009 -0.0020929 0
0.00672314 -0.0376562 0
0.00570685 -0.0655809 0
0.00243023 -0.0655124 0
-0.000709999 -0.0372097 0
-0.00162964 -0.00107093 0
-0.00442068 -0.00041834 0
-0.00456078 1.27753e-05 0
-0.00313633 0.000226571 0
-0.00123973 0.000222738 0
0 0 0
      </DataArray> 
      <DataArray type="Float64" NumberOfComponents="3" Name="Velocity" format="ascii">
0 0 0
0 0 0
0 0 0
0 0 0
0 0 0
0 0 0
0 0 0
0 0 0
0 0 0
0 0 0
0 0 0
0 0 0
0 0 0
0 0 0
0 0 0
0 0 0
0 0 0
0 0 0
0 0 0
0 0 0
0 0 0
0 0 0
0 0 0
0 0 0
0 0 0
0 0 0
0 0 0
0 0 0
0 0 0
0 0 0
0 0 0
0 0 0
0 0 0
0 0 0
0 0 0
0 0 0
      </DataArray> 
      <DataArray type="Float64" NumberOfComponents="3" Name="Acceleration" format="ascii">
0 0 0
0 0 0
0 0 0
0 0 0
0 0 0
0 0 0
0 0 0
0 0 0
0 0 0
0 0 0
0 0 0
0 0 0
0 0 0
0 0 0
0 0 0
0 0 0
0 0 0
0 0 0
0 0 0
0 0 0
0 0 0
0 0 0
0 0 0
0 0 0
0 0 0
0 0 0
0 0 0
0 0 0
0 0 0
0 0 0
0 0 0
0 0 0
0 0 0
0 0 0
0 0 0
0 0 0
      </DataArray> 
    </PointData>
    <CellData>
    </CellData>
  </Piece>
  </UnstructuredGrid>
</VTKFile>
