<?xml version="1.0"?>
<VTKFile type="UnstructuredGrid">
  <UnstructuredGrid>
  <Piece NumberOfPoints="36"  NumberOfCells="69">
    <Points>
      <DataArray type="Float64" NumberOfComponents="3" format="ascii">
0 0 0
-0.00287798 0.999452 0
-0.00711376 1.9994 0
-0.0101879 2.99985 0
-0.00958473 4.0008 0
-0.00250484 5.00221 0
0.0175598 6.00201 0
0.417511 5.99578 0
3.41811 5.9136 0
6.41413 5.84733 0
9.40586 5.84667 0
12.3969 5.91154 0
15.3925 5.99435 0
15.7927 6.0008 0
15.8117 4.99957 0
15.8164 3.99866 0
15.815 2.99823 0
15.8101 1.99832 0
15.8043 0.99891 0
15.8 0 0
15.4 0 0
15.4043 1.00002 0
15.4102 1.99953 0
15.4151 2.99855 0
15.4165 3.99707 0
15.4118 4.99509 0
12.4152 4.91227 0
9.41323 4.8473 0
6.40562 4.84742 0
3.39873 4.91324 0
0.397229 4.99744 0
0.390486 3.99897 0
0.389891 2.99997 0
0.392965 2.00048 0
0.397201 1.00049 0
0.4 0 0
      </DataArray>
    </Points>
    <Cells>
      <DataArray type="Int32" Name="connectivity" format="ascii">
0 1
1 2
2 3
3 4
4 5
5 6
6 7
7 8
8 9
9 10
10 11
11 12
12 13
13 14
14 15
15 16
16 17
17 18
18 19
19 20
20 21
21 22
22 23
23 24
24 25
25 26
26 27
27 28
28 29
29 30
30 31
31 32
32 33
33 34
34 35
0 35
0 34
1 34
1 33
2 33
2 32
3 32
3 31
4 31
4 30
5 30
5 7
30 7
30 8
29 8
29 9
28 9
28 10
27 10
27 11
26 11
26 12
25 12
25 13
25 14
24 14
24 15
23 15
23 16
22 16
22 17
21 17
21 18
20 18
      </DataArray>
      <DataArray type="Int32" Name="offsets" format="ascii">
2
4
6
8
10
12
14
16
18
20
22
24
26
28
30
32
34
36
38
40
42
44
46
48
50
52
54
56
58
60
62
64
66
68
70
72
74
76
78
80
82
84
86
88
90
92
94
96
98
100
102
104
106
108
110
112
114
116
118
120
122
124
126
128
130
132
134
136
138
      </DataArray>
      <DataArray type="UInt8" Name="types" format="ascii">
4
4
4
4
4
4
4
4
4
4
4
4
4
4
4
4
4
4
4
4
4
4
4
4
4
4
4
4
4
4
4
4
4
4
4
4
4
4
4
4
4
4
4
4
4
4
4
4
4
4
4
4
4
4
4
4
4
4
4
4
4
4
4
4
4
4
4
4
4
      </DataArray>
    </Cells>
    <PointData>
      <DataArray type="Float64" NumberOfComponents="3" Name="Displacement" format="ascii">
0 0 0
-0.00287798 -0.000547759 0
-0.00711376 -0.000598784 0
-0.0101879 -0.000146582 0
-0.00958473 0.000803162 0
-0.00250484 0.00221284 0
0.0175598 0.00201152 0
0.0175114 -0.00421566 0
0.0181115 -0.0863999 0
0.0141269 -0.152675 0
0.00585949 -0.153333 0
-0.00310638 -0.0884572 0
-0.00752267 -0.00565278 0
-0.00734874 0.000796223 0
0.0117128 -0.000431977 0
0.0163795 -0.00134415 0
0.0150213 -0.00177062 0
0.0101418 -0.00168466 0
0.00426518 -0.0010895 0
0 0 0
0 0 0
0.00434732 2.22715e-05 0
0.0102242 -0.000466888 0
0.0151024 -0.00145394 0
0.0164644 -0.00292946 0
0.0118242 -0.00490704 0
0.0152296 -0.0877316 0
0.0132339 -0.152699 0
0.00561772 -0.152584 0
-0.0012719 -0.0867573 0
-0.00277141 -0.00255978 0
-0.00951352 -0.0010348 0
-0.0101094 -2.92695e-05 0
-0.00703528 0.000479908 0
-0.00279945 0.000491847 0
0 0 0
      </DataArray> 
      <DataArray type="Float64" NumberOfComponents="3" Name="Velocity" format="ascii">
0 0 0
0 0 0
0 0 0
0 0 0
0 0 0
0 0 0
0 0 0
0 0 0
0 0 0
0 0 0
0 0 0
0 0 0
0 0 0
0 0 0
0 0 0
0 0 0
0 0 0
0 0 0
0 0 0
0 0 0
0 0 0
0 0 0
0 0 0
0 0 0
0 0 0
0 0 0
0 0 0
0 0 0
0 0 0
0 0 0
0 0 0
0 0 0
0 0 0
0 0 0
0 0 0
0 0 0
      </DataArray> 
      <DataArray type="Float64" NumberOfComponents="3" Name="Acceleration" format="ascii">
0 0 0
0 0 0
0 0 0
0 0 0
0 0 0
0 0 0
0 0 0
0 0 0
0 0 0
0 0 0
0 0 0
0 0 0
0 0 0
0 0 0
0 0 0
0 0 0
0 0 0
0 0 0
0 0 0
0 0 0
0 0 0
0 0 0
0 0 0
0 0 0
0 0 0
0 0 0
0 0 0
0 0 0
0 0 0
0 0 0
0 0 0
0 0 0
0 0 0
0 0 0
0 0 0
0 0 0
      </DataArray> 
    </PointData>
    <CellData>
    </CellData>
  </Piece>
  </UnstructuredGrid>
</VTKFile>
