<?xml version="1.0"?>
<VTKFile type="UnstructuredGrid">
  <UnstructuredGrid>
  <Piece NumberOfPoints="36"  NumberOfCells="69">
    <Points>
      <DataArray type="Float64" NumberOfComponents="3" format="ascii">
0 0 0
-0.00271479 0.999483 0
-0.00671527 1.99943 0
-0.00962967 2.99986 0
-0.0090896 4.00075 0
-0.00245777 5.00208 0
0.0164034 6.0019 0
0.416361 5.99605 0
3.41699 5.91878 0
6.41329 5.85646 0
9.40551 5.85583 0
12.3971 5.91684 0
15.393 5.9947 0
15.7932 6.00076 0
15.8111 4.99959 0
15.8155 3.99873 0
15.8142 2.99833 0
15.8096 1.99841 0
15.804 0.998973 0
15.8 0 0
15.4 0 0
15.4041 1.00002 0
15.4096 1.99956 0
15.4142 2.99864 0
15.4156 3.99725 0
15.4112 4.99539 0
12.4144 4.91751 0
9.41245 4.85642 0
6.40529 4.85654 0
3.39877 4.91844 0
0.397293 4.9976 0
0.390978 3.99903 0
0.390444 2.99998 0
0.393359 2.00046 0
0.397359 1.00047 0
0.4 0 0
      </DataArray>
    </Points>
    <Cells>
      <DataArray type="Int32" Name="connectivity" format="ascii">
0 1
1 2
2 3
3 4
4 5
5 6
6 7
7 8
8 9
9 10
10 11
11 12
12 13
13 14
14 15
15 16
16 17
17 18
18 19
19 20
20 21
21 22
22 23
23 24
24 25
25 26
26 27
27 28
28 29
29 30
30 31
31 32
32 33
33 34
34 35
0 35
0 34
1 34
1 33
2 33
2 32
3 32
3 31
4 31
4 30
5 30
5 7
30 7
30 8
29 8
29 9
28 9
28 10
27 10
27 11
26 11
26 12
25 12
25 13
25 14
24 14
24 15
23 15
23 16
22 16
22 17
21 17
21 18
20 18
      </DataArray>
      <DataArray type="Int32" Name="offsets" format="ascii">
2
4
6
8
10
12
14
16
18
20
22
24
26
28
30
32
34
36
38
40
42
44
46
48
50
52
54
56
58
60
62
64
66
68
70
72
74
76
78
80
82
84
86
88
90
92
94
96
98
100
102
104
106
108
110
112
114
116
118
120
122
124
126
128
130
132
134
136
138
      </DataArray>
      <DataArray type="UInt8" Name="types" format="ascii">
4
4
4
4
4
4
4
4
4
4
4
4
4
4
4
4
4
4
4
4
4
4
4
4
4
4
4
4
4
4
4
4
4
4
4
4
4
4
4
4
4
4
4
4
4
4
4
4
4
4
4
4
4
4
4
4
4
4
4
4
4
4
4
4
4
4
4
4
4
      </DataArray>
    </Cells>
    <PointData>
      <DataArray type="Float64" NumberOfComponents="3" Name="Displacement" format="ascii">
0 0 0
-0.00271479 -0.000516957 0
-0.00671527 -0.000565937 0
-0.00962967 -0.000141146 0
-0.0090896 0.000752466 0
-0.00245777 0.0020817 0
0.0164034 0.00190381 0
0.0163606 -0.00394698 0
0.0169906 -0.0812158 0
0.0132856 -0.143545 0
0.00551328 -0.144168 0
-0.00287712 -0.0831583 0
-0.00696469 -0.00530095 0
-0.00679787 0.000757061 0
0.011116 -0.000409939 0
0.0154773 -0.00126866 0
0.0141734 -0.00166895 0
0.00956206 -0.00158727 0
0.00401917 -0.00102656 0
0 0 0
0 0 0
0.00409642 2.29539e-05 0
0.00963955 -0.000435165 0
0.0142497 -0.00136235 0
0.015557 -0.00275018 0
0.0112191 -0.00461061 0
0.0143615 -0.0824857 0
0.0124485 -0.143577 0
0.00528604 -0.143464 0
-0.00123344 -0.0815631 0
-0.00270664 -0.0024003 0
-0.00902199 -0.000967051 0
-0.00955571 -2.17801e-05 0
-0.00664129 0.000455885 0
-0.00264076 0.000465086 0
0 0 0
      </DataArray> 
      <DataArray type="Float64" NumberOfComponents="3" Name="Velocity" format="ascii">
0 0 0
0 0 0
0 0 0
0 0 0
0 0 0
0 0 0
0 0 0
0 0 0
0 0 0
0 0 0
0 0 0
0 0 0
0 0 0
0 0 0
0 0 0
0 0 0
0 0 0
0 0 0
0 0 0
0 0 0
0 0 0
0 0 0
0 0 0
0 0 0
0 0 0
0 0 0
0 0 0
0 0 0
0 0 0
0 0 0
0 0 0
0 0 0
0 0 0
0 0 0
0 0 0
0 0 0
      </DataArray> 
      <DataArray type="Float64" NumberOfComponents="3" Name="Acceleration" format="ascii">
0 0 0
0 0 0
0 0 0
0 0 0
0 0 0
0 0 0
0 0 0
0 0 0
0 0 0
0 0 0
0 0 0
0 0 0
0 0 0
0 0 0
0 0 0
0 0 0
0 0 0
0 0 0
0 0 0
0 0 0
0 0 0
0 0 0
0 0 0
0 0 0
0 0 0
0 0 0
0 0 0
0 0 0
0 0 0
0 0 0
0 0 0
0 0 0
0 0 0
0 0 0
0 0 0
0 0 0
      </DataArray> 
    </PointData>
    <CellData>
    </CellData>
  </Piece>
  </UnstructuredGrid>
</VTKFile>
