<?xml version="1.0"?>
<VTKFile type="UnstructuredGrid">
  <UnstructuredGrid>
  <Piece NumberOfPoints="36"  NumberOfCells="69">
    <Points>
      <DataArray type="Float64" NumberOfComponents="3" format="ascii">
0 0 0
-0.00143788 0.999725 0
-0.00357561 1.9997 0
-0.00517605 2.99991 0
-0.00500289 4.00038 0
-0.00167324 5.00108 0
0.00805754 6.00103 0
0.408046 5.99803 0
3.40863 5.95811 0
6.40688 5.92583 0
9.40287 5.92549 0
12.3987 5.95707 0
15.3968 5.99732 0
15.7969 6.00042 0
15.8062 4.99977 0
15.8083 3.99933 0
15.8075 2.99912 0
15.805 1.99917 0
15.8021 0.999461 0
15.8 0 0
15.4 0 0
15.4022 1.00002 0
15.4051 1.99979 0
15.4076 2.99931 0
15.4083 3.9986 0
15.4062 4.99763 0
12.4076 4.95738 0
9.40646 4.92578 0
6.40275 4.92586 0
3.39921 4.95788 0
0.398205 4.99878 0
0.395035 3.99952 0
0.394863 3.00001 0
0.396463 2.00025 0
0.398601 1.00025 0
0.4 0 0
      </DataArray>
    </Points>
    <Cells>
      <DataArray type="Int32" Name="connectivity" format="ascii">
0 1
1 2
2 3
3 4
4 5
5 6
6 7
7 8
8 9
9 10
10 11
11 12
12 13
13 14
14 15
15 16
16 17
17 18
18 19
19 20
20 21
21 22
22 23
23 24
24 25
25 26
26 27
27 28
28 29
29 30
30 31
31 32
32 33
33 34
34 35
0 35
0 34
1 34
1 33
2 33
2 32
3 32
3 31
4 31
4 30
5 30
5 7
30 7
30 8
29 8
29 9
28 9
28 10
27 10
27 11
26 11
26 12
25 12
25 13
25 14
24 14
24 15
23 15
23 16
22 16
22 17
21 17
21 18
20 18
      </DataArray>
      <DataArray type="Int32" Name="offsets" format="ascii">
2
4
6
8
10
12
14
16
18
20
22
24
26
28
30
32
34
36
38
40
42
44
46
48
50
52
54
56
58
60
62
64
66
68
70
72
74
76
78
80
82
84
86
88
90
92
94
96
98
100
102
104
106
108
110
112
114
116
118
120
122
124
126
128
130
132
134
136
138
      </DataArray>
      <DataArray type="UInt8" Name="types" format="ascii">
4
4
4
4
4
4
4
4
4
4
4
4
4
4
4
4
4
4
4
4
4
4
4
4
4
4
4
4
4
4
4
4
4
4
4
4
4
4
4
4
4
4
4
4
4
4
4
4
4
4
4
4
4
4
4
4
4
4
4
4
4
4
4
4
4
4
4
4
4
      </DataArray>
    </Cells>
    <PointData>
      <DataArray type="Float64" NumberOfComponents="3" Name="Displacement" format="ascii">
0 0 0
-0.00143788 -0.000274741 0
-0.00357561 -0.000303858 0
-0.00517605 -8.56994e-05 0
-0.00500289 0.00037857 0
-0.00167324 0.00108018 0
0.00805754 0.00103284 0
0.00804624 -0.00197444 0
0.0086302 -0.0418935 0
0.006879 -0.0741656 0
0.00286547 -0.074508 0
-0.00131512 -0.0429291 0
-0.00317324 -0.00268474 0
-0.00307431 0.000424292 0
0.00615088 -0.000226502 0
0.00830089 -0.000674213 0
0.00752135 -0.000878448 0
0.00504576 -0.000833065 0
0.00211239 -0.000539035 0
0 0 0
0 0 0
0.00215237 1.98263e-05 0
0.00508581 -0.000209678 0
0.00756106 -0.000685227 0
0.00834143 -0.00140441 0
0.00619763 -0.00237025 0
0.00758824 -0.0426192 0
0.00645595 -0.0742197 0
0.00274833 -0.0741443 0
-0.000785137 -0.042117 0
-0.00179504 -0.00121517 0
-0.00496545 -0.000476401 0
-0.00513698 1.15785e-05 0
-0.00353657 0.000254099 0
-0.00139882 0.000250781 0
0 0 0
      </DataArray> 
      <DataArray type="Float64" NumberOfComponents="3" Name="Velocity" format="ascii">
0 0 0
0 0 0
0 0 0
0 0 0
0 0 0
0 0 0
0 0 0
0 0 0
0 0 0
0 0 0
0 0 0
0 0 0
0 0 0
0 0 0
0 0 0
0 0 0
0 0 0
0 0 0
0 0 0
0 0 0
0 0 0
0 0 0
0 0 0
0 0 0
0 0 0
0 0 0
0 0 0
0 0 0
0 0 0
0 0 0
0 0 0
0 0 0
0 0 0
0 0 0
0 0 0
0 0 0
      </DataArray> 
      <DataArray type="Float64" NumberOfComponents="3" Name="Acceleration" format="ascii">
0 0 0
0 0 0
0 0 0
0 0 0
0 0 0
0 0 0
0 0 0
0 0 0
0 0 0
0 0 0
0 0 0
0 0 0
0 0 0
0 0 0
0 0 0
0 0 0
0 0 0
0 0 0
0 0 0
0 0 0
0 0 0
0 0 0
0 0 0
0 0 0
0 0 0
0 0 0
0 0 0
0 0 0
0 0 0
0 0 0
0 0 0
0 0 0
0 0 0
0 0 0
0 0 0
0 0 0
      </DataArray> 
    </PointData>
    <CellData>
    </CellData>
  </Piece>
  </UnstructuredGrid>
</VTKFile>
