<?xml version="1.0"?>
<VTKFile type="UnstructuredGrid">
  <UnstructuredGrid>
  <Piece NumberOfPoints="36"  NumberOfCells="69">
    <Points>
      <DataArray type="Float64" NumberOfComponents="3" format="ascii">
0 0 0
-0.00222667 0.999575 0
-0.00551946 1.99953 0
-0.00794463 2.99988 0
-0.00757061 4.0006 0
-0.0022427 5.00169 0
0.0130695 6.00158 0
0.413041 5.99683 0
3.41371 5.93407 0
6.4108 5.8834 0
9.40449 5.88288 0
12.3978 5.93247 0
15.3946 5.99573 0
15.7947 6.00064 0
15.8093 4.99966 0
15.8128 3.99896 0
15.8116 2.99863 0
15.8078 1.9987 0
15.8033 0.999161 0
15.8 0 0
15.4 0 0
15.4033 1.00002 0
15.4079 1.99966 0
15.4117 2.9989 0
15.4128 3.99778 0
15.4094 4.99626 0
12.4118 4.933 0
9.41013 4.88335 0
6.4043 4.88345 0
3.39891 4.93376 0
0.397559 4.99807 0
0.392486 3.99923 0
0.392116 3 0
0.394541 2.00038 0
0.397834 1.00038 0
0.4 0 0
      </DataArray>
    </Points>
    <Cells>
      <DataArray type="Int32" Name="connectivity" format="ascii">
0 1
1 2
2 3
3 4
4 5
5 6
6 7
7 8
8 9
9 10
10 11
11 12
12 13
13 14
14 15
15 16
16 17
17 18
18 19
19 20
20 21
21 22
22 23
23 24
24 25
25 26
26 27
27 28
28 29
29 30
30 31
31 32
32 33
33 34
34 35
0 35
0 34
1 34
1 33
2 33
2 32
3 32
3 31
4 31
4 30
5 30
5 7
30 7
30 8
29 8
29 9
28 9
28 10
27 10
27 11
26 11
26 12
25 12
25 13
25 14
24 14
24 15
23 15
23 16
22 16
22 17
21 17
21 18
20 18
      </DataArray>
      <DataArray type="Int32" Name="offsets" format="ascii">
2
4
6
8
10
12
14
16
18
20
22
24
26
28
30
32
34
36
38
40
42
44
46
48
50
52
54
56
58
60
62
64
66
68
70
72
74
76
78
80
82
84
86
88
90
92
94
96
98
100
102
104
106
108
110
112
114
116
118
120
122
124
126
128
130
132
134
136
138
      </DataArray>
      <DataArray type="UInt8" Name="types" format="ascii">
4
4
4
4
4
4
4
4
4
4
4
4
4
4
4
4
4
4
4
4
4
4
4
4
4
4
4
4
4
4
4
4
4
4
4
4
4
4
4
4
4
4
4
4
4
4
4
4
4
4
4
4
4
4
4
4
4
4
4
4
4
4
4
4
4
4
4
4
4
      </DataArray>
    </Cells>
    <PointData>
      <DataArray type="Float64" NumberOfComponents="3" Name="Displacement" format="ascii">
0 0 0
-0.00222667 -0.000424603 0
-0.00551946 -0.000466762 0
-0.00794463 -0.000122552 0
-0.00757061 0.00060491 0
-0.0022427 0.00169381 0
0.0130695 0.00157657 0
0.0130414 -0.00316646 0
0.013711 -0.0659302 0
0.0108007 -0.116601 0
0.00448862 -0.11712 0
-0.00223266 -0.0675276 0
-0.00539806 -0.00427293 0
-0.00525471 0.000635208 0
0.00927818 -0.000342038 0
0.0127578 -0.00104213 0
0.011634 -0.00136569 0
0.00783144 -0.00129733 0
0.00328655 -0.000839161 0
0 0 0
0 0 0
0.00334935 2.349e-05 0
0.00789441 -0.000344306 0
0.0116962 -0.00109539 0
0.0128221 -0.00222404 0
0.0093579 -0.003738 0
0.0117682 -0.0670042 0
0.0101266 -0.11665 0
0.0043042 -0.116548 0
-0.0010921 -0.0662392 0
-0.00244069 -0.00193447 0
-0.00751414 -0.000771419 0
-0.00788404 -3.85235e-06 0
-0.00545887 0.00038158 0
-0.00216605 0.000384167 0
0 0 0
      </DataArray> 
      <DataArray type="Float64" NumberOfComponents="3" Name="Velocity" format="ascii">
0 0 0
0 0 0
0 0 0
0 0 0
0 0 0
0 0 0
0 0 0
0 0 0
0 0 0
0 0 0
0 0 0
0 0 0
0 0 0
0 0 0
0 0 0
0 0 0
0 0 0
0 0 0
0 0 0
0 0 0
0 0 0
0 0 0
0 0 0
0 0 0
0 0 0
0 0 0
0 0 0
0 0 0
0 0 0
0 0 0
0 0 0
0 0 0
0 0 0
0 0 0
0 0 0
0 0 0
      </DataArray> 
      <DataArray type="Float64" NumberOfComponents="3" Name="Acceleration" format="ascii">
0 0 0
0 0 0
0 0 0
0 0 0
0 0 0
0 0 0
0 0 0
0 0 0
0 0 0
0 0 0
0 0 0
0 0 0
0 0 0
0 0 0
0 0 0
0 0 0
0 0 0
0 0 0
0 0 0
0 0 0
0 0 0
0 0 0
0 0 0
0 0 0
0 0 0
0 0 0
0 0 0
0 0 0
0 0 0
0 0 0
0 0 0
0 0 0
0 0 0
0 0 0
0 0 0
0 0 0
      </DataArray> 
    </PointData>
    <CellData>
    </CellData>
  </Piece>
  </UnstructuredGrid>
</VTKFile>
