<?xml version="1.0"?>
<VTKFile type="UnstructuredGrid">
  <UnstructuredGrid>
  <Piece NumberOfPoints="36"  NumberOfCells="69">
    <Points>
      <DataArray type="Float64" NumberOfComponents="3" format="ascii">
0 0 0
-0.00242885 0.999537 0
-0.00601545 1.99949 0
-0.00864531 2.99987 0
-0.00820654 4.00067 0
-0.00234504 5.00185 0
0.014428 6.00171 0
0.414394 5.99651 0
3.41506 5.92778 0
6.41182 5.8723 0
9.40491 5.87174 0
12.3975 5.92604 0
15.394 5.99531 0
15.7941 6.00069 0
15.81 4.99963 0
15.8139 3.99886 0
15.8127 2.99851 0
15.8085 1.99858 0
15.8036 0.999083 0
15.8 0 0
15.4 0 0
15.4037 1.00002 0
15.4086 1.99962 0
15.4128 2.9988 0
15.414 3.99756 0
15.4101 4.9959 0
12.4128 4.92662 0
9.41108 4.87226 0
6.40471 4.87237 0
3.39884 4.92745 0
0.397436 4.99787 0
0.391855 3.99915 0
0.391421 2.99999 0
0.394051 2.00041 0
0.397637 1.00042 0
0.4 0 0
      </DataArray>
    </Points>
    <Cells>
      <DataArray type="Int32" Name="connectivity" format="ascii">
0 1
1 2
2 3
3 4
4 5
5 6
6 7
7 8
8 9
9 10
10 11
11 12
12 13
13 14
14 15
15 16
16 17
17 18
18 19
19 20
20 21
21 22
22 23
23 24
24 25
25 26
26 27
27 28
28 29
29 30
30 31
31 32
32 33
33 34
34 35
0 35
0 34
1 34
1 33
2 33
2 32
3 32
3 31
4 31
4 30
5 30
5 7
30 7
30 8
29 8
29 9
28 9
28 10
27 10
27 11
26 11
26 12
25 12
25 13
25 14
24 14
24 15
23 15
23 16
22 16
22 17
21 17
21 18
20 18
      </DataArray>
      <DataArray type="Int32" Name="offsets" format="ascii">
2
4
6
8
10
12
14
16
18
20
22
24
26
28
30
32
34
36
38
40
42
44
46
48
50
52
54
56
58
60
62
64
66
68
70
72
74
76
78
80
82
84
86
88
90
92
94
96
98
100
102
104
106
108
110
112
114
116
118
120
122
124
126
128
130
132
134
136
138
      </DataArray>
      <DataArray type="UInt8" Name="types" format="ascii">
4
4
4
4
4
4
4
4
4
4
4
4
4
4
4
4
4
4
4
4
4
4
4
4
4
4
4
4
4
4
4
4
4
4
4
4
4
4
4
4
4
4
4
4
4
4
4
4
4
4
4
4
4
4
4
4
4
4
4
4
4
4
4
4
4
4
4
4
4
      </DataArray>
    </Cells>
    <PointData>
      <DataArray type="Float64" NumberOfComponents="3" Name="Displacement" format="ascii">
0 0 0
-0.00242885 -0.000462895 0
-0.00601545 -0.000508003 0
-0.00864531 -0.000130667 0
-0.00820654 0.0006653 0
-0.00234504 0.00185369 0
0.014428 0.00171302 0
0.0143942 -0.00348562 0
0.0150563 -0.072222 0
0.0118244 -0.127696 0
0.00491108 -0.128258 0
-0.00249222 -0.0739626 0
-0.00602867 -0.00469438 0
-0.0058752 0.000686519 0
0.0100488 -0.000370514 0
0.013888 -0.00113608 0
0.0126864 -0.00149115 0
0.00854762 -0.00141718 0
0.00358942 -0.000916622 0
0 0 0
0 0 0
0.00365817 2.35371e-05 0
0.00861657 -0.000381217 0
0.0127544 -0.0012047 0
0.0139586 -0.00244016 0
0.0101379 -0.00409692 0
0.0128417 -0.073379 0
0.0110835 -0.127739 0
0.00470904 -0.127632 0
-0.00115533 -0.0725482 0
-0.00256374 -0.00212542 0
-0.00814539 -0.000851196 0
-0.00857918 -1.04763e-05 0
-0.00594933 0.000412796 0
-0.00236268 0.000417839 0
0 0 0
      </DataArray> 
      <DataArray type="Float64" NumberOfComponents="3" Name="Velocity" format="ascii">
0 0 0
0 0 0
0 0 0
0 0 0
0 0 0
0 0 0
0 0 0
0 0 0
0 0 0
0 0 0
0 0 0
0 0 0
0 0 0
0 0 0
0 0 0
0 0 0
0 0 0
0 0 0
0 0 0
0 0 0
0 0 0
0 0 0
0 0 0
0 0 0
0 0 0
0 0 0
0 0 0
0 0 0
0 0 0
0 0 0
0 0 0
0 0 0
0 0 0
0 0 0
0 0 0
0 0 0
      </DataArray> 
      <DataArray type="Float64" NumberOfComponents="3" Name="Acceleration" format="ascii">
0 0 0
0 0 0
0 0 0
0 0 0
0 0 0
0 0 0
0 0 0
0 0 0
0 0 0
0 0 0
0 0 0
0 0 0
0 0 0
0 0 0
0 0 0
0 0 0
0 0 0
0 0 0
0 0 0
0 0 0
0 0 0
0 0 0
0 0 0
0 0 0
0 0 0
0 0 0
0 0 0
0 0 0
0 0 0
0 0 0
0 0 0
0 0 0
0 0 0
0 0 0
0 0 0
0 0 0
      </DataArray> 
    </PointData>
    <CellData>
    </CellData>
  </Piece>
  </UnstructuredGrid>
</VTKFile>
