<?xml version="1.0"?>
<VTKFile type="UnstructuredGrid">
  <UnstructuredGrid>
  <Piece NumberOfPoints="36"  NumberOfCells="69">
    <Points>
      <DataArray type="Float64" NumberOfComponents="3" format="ascii">
0 0 0
-0.00134361 0.999743 0
-0.00334241 1.99972 0
-0.00484162 2.99992 0
-0.00468719 4.00035 0
-0.00158782 5.00101 0
0.00748798 6.00097 0
0.407478 5.99816 0
3.40804 5.96093 0
6.40642 5.93082 0
9.40267 5.9305 0
12.3988 5.95996 0
15.3971 5.9975 0
15.7972 6.0004 0
15.8058 4.99979 0
15.8078 3.99937 0
15.807 2.99918 0
15.8047 1.99922 0
15.802 0.999497 0
15.8 0 0
15.4 0 0
15.402 1.00002 0
15.4048 1.99981 0
15.4071 2.99936 0
15.4078 3.99869 0
15.4058 4.99779 0
12.4071 4.96025 0
9.40602 4.93077 0
6.40256 4.93084 0
3.39926 4.96072 0
0.398299 4.99887 0
0.395348 3.99956 0
0.395195 3.00001 0
0.396694 2.00024 0
0.398693 1.00023 0
0.4 0 0
      </DataArray>
    </Points>
    <Cells>
      <DataArray type="Int32" Name="connectivity" format="ascii">
0 1
1 2
2 3
3 4
4 5
5 6
6 7
7 8
8 9
9 10
10 11
11 12
12 13
13 14
14 15
15 16
16 17
17 18
18 19
19 20
20 21
21 22
22 23
23 24
24 25
25 26
26 27
27 28
28 29
29 30
30 31
31 32
32 33
33 34
34 35
0 35
0 34
1 34
1 33
2 33
2 32
3 32
3 31
4 31
4 30
5 30
5 7
30 7
30 8
29 8
29 9
28 9
28 10
27 10
27 11
26 11
26 12
25 12
25 13
25 14
24 14
24 15
23 15
23 16
22 16
22 17
21 17
21 18
20 18
      </DataArray>
      <DataArray type="Int32" Name="offsets" format="ascii">
2
4
6
8
10
12
14
16
18
20
22
24
26
28
30
32
34
36
38
40
42
44
46
48
50
52
54
56
58
60
62
64
66
68
70
72
74
76
78
80
82
84
86
88
90
92
94
96
98
100
102
104
106
108
110
112
114
116
118
120
122
124
126
128
130
132
134
136
138
      </DataArray>
      <DataArray type="UInt8" Name="types" format="ascii">
4
4
4
4
4
4
4
4
4
4
4
4
4
4
4
4
4
4
4
4
4
4
4
4
4
4
4
4
4
4
4
4
4
4
4
4
4
4
4
4
4
4
4
4
4
4
4
4
4
4
4
4
4
4
4
4
4
4
4
4
4
4
4
4
4
4
4
4
4
      </DataArray>
    </Cells>
    <PointData>
      <DataArray type="Float64" NumberOfComponents="3" Name="Displacement" format="ascii">
0 0 0
-0.00134361 -0.000256785 0
-0.00334241 -0.000284192 0
-0.00484162 -8.07758e-05 0
-0.00468719 0.000352459 0
-0.00158782 0.00100789 0
0.00748798 0.000966705 0
0.00747815 -0.00183741 0
0.00804019 -0.0390731 0
0.00641766 -0.0691808 0
0.00267404 -0.0695015 0
-0.0012152 -0.0400413 0
-0.00293142 -0.00250067 0
-0.00283829 0.000397994 0
0.00576482 -0.000212249 0
0.00776339 -0.000630122 0
0.00702915 -0.00082046 0
0.00471371 -0.000777928 0
0.00197283 -0.000503382 0
0 0 0
0 0 0
0.00201012 1.90315e-05 0
0.00475107 -0.000194555 0
0.00706621 -0.000637893 0
0.00780117 -0.00130887 0
0.00580799 -0.00221013 0
0.00708953 -0.0397547 0
0.00602368 -0.0692338 0
0.00256479 -0.0691623 0
-0.000742293 -0.0392846 0
-0.00170098 -0.00113183 0
-0.0046521 -0.000442808 0
-0.00480512 1.23501e-05 0
-0.00330594 0.000238276 0
-0.00130712 0.000234632 0
0 0 0
      </DataArray> 
      <DataArray type="Float64" NumberOfComponents="3" Name="Velocity" format="ascii">
0 0 0
0 0 0
0 0 0
0 0 0
0 0 0
0 0 0
0 0 0
0 0 0
0 0 0
0 0 0
0 0 0
0 0 0
0 0 0
0 0 0
0 0 0
0 0 0
0 0 0
0 0 0
0 0 0
0 0 0
0 0 0
0 0 0
0 0 0
0 0 0
0 0 0
0 0 0
0 0 0
0 0 0
0 0 0
0 0 0
0 0 0
0 0 0
0 0 0
0 0 0
0 0 0
0 0 0
      </DataArray> 
      <DataArray type="Float64" NumberOfComponents="3" Name="Acceleration" format="ascii">
0 0 0
0 0 0
0 0 0
0 0 0
0 0 0
0 0 0
0 0 0
0 0 0
0 0 0
0 0 0
0 0 0
0 0 0
0 0 0
0 0 0
0 0 0
0 0 0
0 0 0
0 0 0
0 0 0
0 0 0
0 0 0
0 0 0
0 0 0
0 0 0
0 0 0
0 0 0
0 0 0
0 0 0
0 0 0
0 0 0
0 0 0
0 0 0
0 0 0
0 0 0
0 0 0
0 0 0
      </DataArray> 
    </PointData>
    <CellData>
    </CellData>
  </Piece>
  </UnstructuredGrid>
</VTKFile>
