<?xml version="1.0"?>
<VTKFile type="UnstructuredGrid">
  <UnstructuredGrid>
  <Piece NumberOfPoints="36"  NumberOfCells="69">
    <Points>
      <DataArray type="Float64" NumberOfComponents="3" format="ascii">
0 0 0
-0.00151313 0.999711 0
-0.00376163 1.99968 0
-0.00544247 2.99991 0
-0.00525358 4.0004 0
-0.00173884 5.00114 0
0.00851657 6.00109 0
0.408504 5.99792 0
3.4091 5.95585 0
6.40725 5.92184 0
9.40302 5.92148 0
12.3986 5.95476 0
15.3966 5.99717 0
15.7967 6.00045 0
15.8065 4.99976 0
15.8087 3.99929 0
15.8079 2.99908 0
15.8053 1.99912 0
15.8022 0.999432 0
15.8 0 0
15.4 0 0
15.4023 1.00002 0
15.4054 1.99978 0
15.408 2.99928 0
15.4088 3.99852 0
15.4065 4.9975 0
12.408 4.95509 0
9.4068 4.92179 0
6.4029 4.92187 0
3.39918 4.95561 0
0.398132 4.99872 0
0.394786 3.9995 0
0.394599 3.00001 0
0.396279 2.00027 0
0.398528 1.00026 0
0.4 0 0
      </DataArray>
    </Points>
    <Cells>
      <DataArray type="Int32" Name="connectivity" format="ascii">
0 1
1 2
2 3
3 4
4 5
5 6
6 7
7 8
8 9
9 10
10 11
11 12
12 13
13 14
14 15
15 16
16 17
17 18
18 19
19 20
20 21
21 22
22 23
23 24
24 25
25 26
26 27
27 28
28 29
29 30
30 31
31 32
32 33
33 34
34 35
0 35
0 34
1 34
1 33
2 33
2 32
3 32
3 31
4 31
4 30
5 30
5 7
30 7
30 8
29 8
29 9
28 9
28 10
27 10
27 11
26 11
26 12
25 12
25 13
25 14
24 14
24 15
23 15
23 16
22 16
22 17
21 17
21 18
20 18
      </DataArray>
      <DataArray type="Int32" Name="offsets" format="ascii">
2
4
6
8
10
12
14
16
18
20
22
24
26
28
30
32
34
36
38
40
42
44
46
48
50
52
54
56
58
60
62
64
66
68
70
72
74
76
78
80
82
84
86
88
90
92
94
96
98
100
102
104
106
108
110
112
114
116
118
120
122
124
126
128
130
132
134
136
138
      </DataArray>
      <DataArray type="UInt8" Name="types" format="ascii">
4
4
4
4
4
4
4
4
4
4
4
4
4
4
4
4
4
4
4
4
4
4
4
4
4
4
4
4
4
4
4
4
4
4
4
4
4
4
4
4
4
4
4
4
4
4
4
4
4
4
4
4
4
4
4
4
4
4
4
4
4
4
4
4
4
4
4
4
4
      </DataArray>
    </Cells>
    <PointData>
      <DataArray type="Float64" NumberOfComponents="3" Name="Displacement" format="ascii">
0 0 0
-0.00151313 -0.000289067 0
-0.00376163 -0.000319528 0
-0.00544247 -8.95532e-05 0
-0.00525358 0.000399552 0
-0.00173884 0.00113805 0
0.00851657 0.00108546 0
0.00850401 -0.00208464 0
0.00910373 -0.0441526 0
0.00724835 -0.0781576 0
0.00301866 -0.0785172 0
-0.00139634 -0.0452421 0
-0.00336987 -0.00283253 0
-0.00326637 0.000445122 0
0.00645722 -0.000237814 0
0.00872922 -0.000709392 0
0.00791414 -0.000924774 0
0.00531095 -0.00087713 0
0.00222391 -0.000567527 0
0 0 0
0 0 0
0.00226603 2.04074e-05 0
0.00535316 -0.000221895 0
0.00795597 -0.000723263 0
0.00877198 -0.00148103 0
0.00650687 -0.00249857 0
0.00798645 -0.0449132 0
0.00680196 -0.0782123 0
0.0028952 -0.0781339 0
-0.000818418 -0.0443855 0
-0.0018676 -0.00128209 0
-0.00521427 -0.000503465 0
-0.00540136 1.08017e-05 0
-0.00372054 0.00026664 0
-0.00147202 0.00026364 0
0 0 0
      </DataArray> 
      <DataArray type="Float64" NumberOfComponents="3" Name="Velocity" format="ascii">
0 0 0
0 0 0
0 0 0
0 0 0
0 0 0
0 0 0
0 0 0
0 0 0
0 0 0
0 0 0
0 0 0
0 0 0
0 0 0
0 0 0
0 0 0
0 0 0
0 0 0
0 0 0
0 0 0
0 0 0
0 0 0
0 0 0
0 0 0
0 0 0
0 0 0
0 0 0
0 0 0
0 0 0
0 0 0
0 0 0
0 0 0
0 0 0
0 0 0
0 0 0
0 0 0
0 0 0
      </DataArray> 
      <DataArray type="Float64" NumberOfComponents="3" Name="Acceleration" format="ascii">
0 0 0
0 0 0
0 0 0
0 0 0
0 0 0
0 0 0
0 0 0
0 0 0
0 0 0
0 0 0
0 0 0
0 0 0
0 0 0
0 0 0
0 0 0
0 0 0
0 0 0
0 0 0
0 0 0
0 0 0
0 0 0
0 0 0
0 0 0
0 0 0
0 0 0
0 0 0
0 0 0
0 0 0
0 0 0
0 0 0
0 0 0
0 0 0
0 0 0
0 0 0
0 0 0
0 0 0
      </DataArray> 
    </PointData>
    <CellData>
    </CellData>
  </Piece>
  </UnstructuredGrid>
</VTKFile>
