<?xml version="1.0"?>
<VTKFile type="UnstructuredGrid">
  <UnstructuredGrid>
  <Piece NumberOfPoints="36"  NumberOfCells="69">
    <Points>
      <DataArray type="Float64" NumberOfComponents="3" format="ascii">
0 0 0
-0.000446321 0.999915 0
-0.00111397 1.9999 0
-0.00162321 2.99997 0
-0.00159437 4.00011 0
-0.000601415 5.00033 0
0.00236133 6.00033 0
0.40236 5.99941 0
3.4026 5.98725 0
6.4021 5.97739 0
9.40088 5.97729 0
12.3996 5.98692 0
15.3991 5.99919 0
15.7992 6.00014 0
15.802 4.99993 0
15.8026 3.99979 0
15.8023 2.99973 0
15.8016 1.99974 0
15.8007 0.999834 0
15.8 0 0
15.4 0 0
15.4007 1.00001 0
15.4016 1.99994 0
15.4023 2.9998 0
15.4026 3.99958 0
15.402 4.99928 0
12.4024 4.98701 0
9.40197 4.97737 0
6.40084 4.9774 0
3.39973 4.98717 0
0.399363 4.99964 0
0.398418 3.99986 0
0.398389 3.00001 0
0.398898 2.00008 0
0.399566 1.00008 0
0.4 0 0
      </DataArray>
    </Points>
    <Cells>
      <DataArray type="Int32" Name="connectivity" format="ascii">
0 1
1 2
2 3
3 4
4 5
5 6
6 7
7 8
8 9
9 10
10 11
11 12
12 13
13 14
14 15
15 16
16 17
17 18
18 19
19 20
20 21
21 22
22 23
23 24
24 25
25 26
26 27
27 28
28 29
29 30
30 31
31 32
32 33
33 34
34 35
0 35
0 34
1 34
1 33
2 33
2 32
3 32
3 31
4 31
4 30
5 30
5 7
30 7
30 8
29 8
29 9
28 9
28 10
27 10
27 11
26 11
26 12
25 12
25 13
25 14
24 14
24 15
23 15
23 16
22 16
22 17
21 17
21 18
20 18
      </DataArray>
      <DataArray type="Int32" Name="offsets" format="ascii">
2
4
6
8
10
12
14
16
18
20
22
24
26
28
30
32
34
36
38
40
42
44
46
48
50
52
54
56
58
60
62
64
66
68
70
72
74
76
78
80
82
84
86
88
90
92
94
96
98
100
102
104
106
108
110
112
114
116
118
120
122
124
126
128
130
132
134
136
138
      </DataArray>
      <DataArray type="UInt8" Name="types" format="ascii">
4
4
4
4
4
4
4
4
4
4
4
4
4
4
4
4
4
4
4
4
4
4
4
4
4
4
4
4
4
4
4
4
4
4
4
4
4
4
4
4
4
4
4
4
4
4
4
4
4
4
4
4
4
4
4
4
4
4
4
4
4
4
4
4
4
4
4
4
4
      </DataArray>
    </Cells>
    <PointData>
      <DataArray type="Float64" NumberOfComponents="3" Name="Displacement" format="ascii">
0 0 0
-0.000446321 -8.54604e-05 0
-0.00111397 -9.51491e-05 0
-0.00162321 -2.89052e-05 0
-0.00159437 0.000113174 0
-0.000601415 0.000330281 0
0.00236133 0.000325892 0
0.00236028 -0.000587197 0
0.00259682 -0.0127534 0
0.00210023 -0.0226059 0
0.000877387 -0.0227148 0
-0.000361786 -0.0130763 0
-0.00087062 -0.000806043 0
-0.000837636 0.000136826 0
0.00196732 -7.2285e-05 0
0.00259921 -0.00020957 0
0.00233762 -0.000271254 0
0.00156195 -0.000256778 0
0.000652057 -0.000166245 0
0 0 0
0 0 0
0.000664246 7.86877e-06 0
0.00157415 -6.03937e-05 0
0.00234978 -0.000204476 0
0.00261144 -0.000424143 0
0.00198013 -0.000719666 0
0.00235123 -0.0129903 0
0.00197341 -0.0226309 0
0.000841744 -0.022604 0
-0.000272905 -0.0128315 0
-0.00063703 -0.00036476 0
-0.00158242 -0.000139854 0
-0.0016111 8.81084e-06 0
-0.00110187 8.17238e-05 0
-0.000434221 7.88387e-05 0
0 0 0
      </DataArray> 
      <DataArray type="Float64" NumberOfComponents="3" Name="Velocity" format="ascii">
0 0 0
0 0 0
0 0 0
0 0 0
0 0 0
0 0 0
0 0 0
0 0 0
0 0 0
0 0 0
0 0 0
0 0 0
0 0 0
0 0 0
0 0 0
0 0 0
0 0 0
0 0 0
0 0 0
0 0 0
0 0 0
0 0 0
0 0 0
0 0 0
0 0 0
0 0 0
0 0 0
0 0 0
0 0 0
0 0 0
0 0 0
0 0 0
0 0 0
0 0 0
0 0 0
0 0 0
      </DataArray> 
      <DataArray type="Float64" NumberOfComponents="3" Name="Acceleration" format="ascii">
0 0 0
0 0 0
0 0 0
0 0 0
0 0 0
0 0 0
0 0 0
0 0 0
0 0 0
0 0 0
0 0 0
0 0 0
0 0 0
0 0 0
0 0 0
0 0 0
0 0 0
0 0 0
0 0 0
0 0 0
0 0 0
0 0 0
0 0 0
0 0 0
0 0 0
0 0 0
0 0 0
0 0 0
0 0 0
0 0 0
0 0 0
0 0 0
0 0 0
0 0 0
0 0 0
0 0 0
      </DataArray> 
    </PointData>
    <CellData>
    </CellData>
  </Piece>
  </UnstructuredGrid>
</VTKFile>
