<?xml version="1.0"?>
<VTKFile type="UnstructuredGrid">
  <UnstructuredGrid>
  <Piece NumberOfPoints="36"  NumberOfCells="69">
    <Points>
      <DataArray type="Float64" NumberOfComponents="3" format="ascii">
0 0 0
-0.00210973 0.999598 0
-0.00523216 1.99956 0
-0.00753767 2.99988 0
-0.00719856 4.00057 0
-0.00217517 5.0016 0
0.0122979 6.0015 0
0.412273 5.99702 0
3.41294 5.93768 0
6.41021 5.88977 0
9.40425 5.88928 0
12.3979 5.93617 0
15.395 5.99597 0
15.7951 6.00061 0
15.8088 4.99967 0
15.8121 3.99901 0
15.811 2.99871 0
15.8074 1.99877 0
15.8031 0.999206 0
15.8 0 0
15.4 0 0
15.4032 1.00002 0
15.4075 1.99968 0
15.4111 2.99897 0
15.4122 3.9979 0
15.4089 4.99647 0
12.4111 4.93666 0
9.40958 4.88972 0
6.40407 4.88982 0
3.39895 4.93739 0
0.397639 4.99817 0
0.392855 3.99927 0
0.39252 3 0
0.394825 2.00036 0
0.397948 1.00036 0
0.4 0 0
      </DataArray>
    </Points>
    <Cells>
      <DataArray type="Int32" Name="connectivity" format="ascii">
0 1
1 2
2 3
3 4
4 5
5 6
6 7
7 8
8 9
9 10
10 11
11 12
12 13
13 14
14 15
15 16
16 17
17 18
18 19
19 20
20 21
21 22
22 23
23 24
24 25
25 26
26 27
27 28
28 29
29 30
30 31
31 32
32 33
33 34
34 35
0 35
0 34
1 34
1 33
2 33
2 32
3 32
3 31
4 31
4 30
5 30
5 7
30 7
30 8
29 8
29 9
28 9
28 10
27 10
27 11
26 11
26 12
25 12
25 13
25 14
24 14
24 15
23 15
23 16
22 16
22 17
21 17
21 18
20 18
      </DataArray>
      <DataArray type="Int32" Name="offsets" format="ascii">
2
4
6
8
10
12
14
16
18
20
22
24
26
28
30
32
34
36
38
40
42
44
46
48
50
52
54
56
58
60
62
64
66
68
70
72
74
76
78
80
82
84
86
88
90
92
94
96
98
100
102
104
106
108
110
112
114
116
118
120
122
124
126
128
130
132
134
136
138
      </DataArray>
      <DataArray type="UInt8" Name="types" format="ascii">
4
4
4
4
4
4
4
4
4
4
4
4
4
4
4
4
4
4
4
4
4
4
4
4
4
4
4
4
4
4
4
4
4
4
4
4
4
4
4
4
4
4
4
4
4
4
4
4
4
4
4
4
4
4
4
4
4
4
4
4
4
4
4
4
4
4
4
4
4
      </DataArray>
    </Cells>
    <PointData>
      <DataArray type="Float64" NumberOfComponents="3" Name="Displacement" format="ascii">
0 0 0
-0.00210973 -0.000402433 0
-0.00523216 -0.00044281 0
-0.00753767 -0.000117601 0
-0.00719856 0.000570439 0
-0.00217517 0.00160184 0
0.0122979 0.0014971 0
0.0122728 -0.00298448 0
0.0129411 -0.0623162 0
0.0102122 -0.110226 0
0.00424551 -0.11072 0
-0.0020872 -0.0638307 0
-0.00504487 -0.00403193 0
-0.00490762 0.000605005 0
0.00882656 -0.000325349 0
0.0121018 -0.000987719 0
0.011025 -0.00129324 0
0.00741764 -0.00122817 0
0.00311175 -0.000794462 0
0 0 0
0 0 0
0.00317112 2.32927e-05 0
0.00747717 -0.000323415 0
0.0110838 -0.00103296 0
0.0121625 -0.0021002 0
0.00890103 -0.00353201 0
0.0111478 -0.0633411 0
0.00957619 -0.110278 0
0.00407121 -0.110179 0
-0.00105258 -0.0626143 0
-0.00236141 -0.00182529 0
-0.00714483 -0.000726073 0
-0.00748027 -5.2884e-07 0
-0.00517478 0.000363248 0
-0.00205232 0.000364594 0
0 0 0
      </DataArray> 
      <DataArray type="Float64" NumberOfComponents="3" Name="Velocity" format="ascii">
0 0 0
0 0 0
0 0 0
0 0 0
0 0 0
0 0 0
0 0 0
0 0 0
0 0 0
0 0 0
0 0 0
0 0 0
0 0 0
0 0 0
0 0 0
0 0 0
0 0 0
0 0 0
0 0 0
0 0 0
0 0 0
0 0 0
0 0 0
0 0 0
0 0 0
0 0 0
0 0 0
0 0 0
0 0 0
0 0 0
0 0 0
0 0 0
0 0 0
0 0 0
0 0 0
0 0 0
      </DataArray> 
      <DataArray type="Float64" NumberOfComponents="3" Name="Acceleration" format="ascii">
0 0 0
0 0 0
0 0 0
0 0 0
0 0 0
0 0 0
0 0 0
0 0 0
0 0 0
0 0 0
0 0 0
0 0 0
0 0 0
0 0 0
0 0 0
0 0 0
0 0 0
0 0 0
0 0 0
0 0 0
0 0 0
0 0 0
0 0 0
0 0 0
0 0 0
0 0 0
0 0 0
0 0 0
0 0 0
0 0 0
0 0 0
0 0 0
0 0 0
0 0 0
0 0 0
0 0 0
      </DataArray> 
    </PointData>
    <CellData>
    </CellData>
  </Piece>
  </UnstructuredGrid>
</VTKFile>
