<?xml version="1.0"?>
<VTKFile type="UnstructuredGrid">
  <UnstructuredGrid>
  <Piece NumberOfPoints="36"  NumberOfCells="69">
    <Points>
      <DataArray type="Float64" NumberOfComponents="3" format="ascii">
0 0 0
-0.00233096 0.999556 0
-0.00577544 1.99951 0
-0.00830656 2.99987 0
-0.00789984 4.00064 0
-0.0022978 5.00178 0
0.0137664 6.00165 0
0.413735 5.99667 0
3.4144 5.93083 0
6.41133 5.87769 0
9.40471 5.87715 0
12.3976 5.92916 0
15.3943 5.99551 0
15.7944 6.00066 0
15.8097 4.99964 0
15.8133 3.99891 0
15.8122 2.99857 0
15.8082 1.99864 0
15.8034 0.999121 0
15.8 0 0
15.4 0 0
15.4035 1.00002 0
15.4083 1.99964 0
15.4122 2.99885 0
15.4134 3.99766 0
15.4098 4.99608 0
12.4123 4.92971 0
9.41062 4.87764 0
6.40451 4.87775 0
3.39887 4.93051 0
0.397494 4.99797 0
0.392159 3.99919 0
0.391757 2.99999 0
0.394288 2.0004 0
0.397733 1.0004 0
0.4 0 0
      </DataArray>
    </Points>
    <Cells>
      <DataArray type="Int32" Name="connectivity" format="ascii">
0 1
1 2
2 3
3 4
4 5
5 6
6 7
7 8
8 9
9 10
10 11
11 12
12 13
13 14
14 15
15 16
16 17
17 18
18 19
19 20
20 21
21 22
22 23
23 24
24 25
25 26
26 27
27 28
28 29
29 30
30 31
31 32
32 33
33 34
34 35
0 35
0 34
1 34
1 33
2 33
2 32
3 32
3 31
4 31
4 30
5 30
5 7
30 7
30 8
29 8
29 9
28 9
28 10
27 10
27 11
26 11
26 12
25 12
25 13
25 14
24 14
24 15
23 15
23 16
22 16
22 17
21 17
21 18
20 18
      </DataArray>
      <DataArray type="Int32" Name="offsets" format="ascii">
2
4
6
8
10
12
14
16
18
20
22
24
26
28
30
32
34
36
38
40
42
44
46
48
50
52
54
56
58
60
62
64
66
68
70
72
74
76
78
80
82
84
86
88
90
92
94
96
98
100
102
104
106
108
110
112
114
116
118
120
122
124
126
128
130
132
134
136
138
      </DataArray>
      <DataArray type="UInt8" Name="types" format="ascii">
4
4
4
4
4
4
4
4
4
4
4
4
4
4
4
4
4
4
4
4
4
4
4
4
4
4
4
4
4
4
4
4
4
4
4
4
4
4
4
4
4
4
4
4
4
4
4
4
4
4
4
4
4
4
4
4
4
4
4
4
4
4
4
4
4
4
4
4
4
      </DataArray>
    </Cells>
    <PointData>
      <DataArray type="Float64" NumberOfComponents="3" Name="Displacement" format="ascii">
0 0 0
-0.00233096 -0.000444363 0
-0.00577544 -0.000488065 0
-0.00830656 -0.00012681 0
-0.00789984 0.000635937 0
-0.0022978 0.00177615 0
0.0137664 0.00164711 0
0.0137355 -0.00333039 0
0.0144027 -0.069169 0
0.0113278 -0.122313 0
0.00470621 -0.122855 0
-0.00236527 -0.0708403 0
-0.00572019 -0.00448959 0
-0.00557155 0.000661824 0
0.00967736 -0.000356789 0
0.0133415 -0.00109062 0
0.012177 -0.00143038 0
0.00820078 -0.00135911 0
0.00344269 -0.000879093 0
0 0 0
0 0 0
0.00350855 2.35612e-05 0
0.00826683 -0.000363221 0
0.0122422 -0.00115156 0
0.013409 -0.00233521 0
0.00976187 -0.00392272 0
0.0123219 -0.0702862 0
0.0106193 -0.122359 0
0.00451272 -0.122255 0
-0.00112554 -0.0694872 0
-0.00250641 -0.00203262 0
-0.00784094 -0.000812355 0
-0.00824312 -7.1296e-06 0
-0.005712 0.000397759 0
-0.00226749 0.000401565 0
0 0 0
      </DataArray> 
      <DataArray type="Float64" NumberOfComponents="3" Name="Velocity" format="ascii">
0 0 0
0 0 0
0 0 0
0 0 0
0 0 0
0 0 0
0 0 0
0 0 0
0 0 0
0 0 0
0 0 0
0 0 0
0 0 0
0 0 0
0 0 0
0 0 0
0 0 0
0 0 0
0 0 0
0 0 0
0 0 0
0 0 0
0 0 0
0 0 0
0 0 0
0 0 0
0 0 0
0 0 0
0 0 0
0 0 0
0 0 0
0 0 0
0 0 0
0 0 0
0 0 0
0 0 0
      </DataArray> 
      <DataArray type="Float64" NumberOfComponents="3" Name="Acceleration" format="ascii">
0 0 0
0 0 0
0 0 0
0 0 0
0 0 0
0 0 0
0 0 0
0 0 0
0 0 0
0 0 0
0 0 0
0 0 0
0 0 0
0 0 0
0 0 0
0 0 0
0 0 0
0 0 0
0 0 0
0 0 0
0 0 0
0 0 0
0 0 0
0 0 0
0 0 0
0 0 0
0 0 0
0 0 0
0 0 0
0 0 0
0 0 0
0 0 0
0 0 0
0 0 0
0 0 0
0 0 0
      </DataArray> 
    </PointData>
    <CellData>
    </CellData>
  </Piece>
  </UnstructuredGrid>
</VTKFile>
