<?xml version="1.0"?>
<VTKFile type="UnstructuredGrid">
  <UnstructuredGrid>
  <Piece NumberOfPoints="36"  NumberOfCells="69">
    <Points>
      <DataArray type="Float64" NumberOfComponents="3" format="ascii">
0 0 0
-0.00260556 0.999504 0
-0.00644818 1.99946 0
-0.00925457 2.99986 0
-0.00875457 4.00072 0
-0.0024192 5.00199 0
0.0156412 6.00183 0
0.415602 5.99623 0
3.41625 5.92223 0
6.41273 5.86253 0
9.40528 5.86193 0
12.3973 5.92037 0
15.3934 5.99493 0
15.7936 6.00073 0
15.8107 4.99961 0
15.8149 3.99878 0
15.8136 2.9984 0
15.8092 1.99848 0
15.8039 0.999015 0
15.8 0 0
15.4 0 0
15.4039 1.00002 0
15.4092 1.99959 0
15.4137 2.9987 0
15.4149 3.99737 0
15.4108 4.99559 0
12.4138 4.92101 0
9.41193 4.86249 0
6.40507 4.86261 0
3.39879 4.92189 0
0.397344 4.99771 0
0.391311 3.99908 0
0.390816 2.99998 0
0.393623 2.00044 0
0.397465 1.00045 0
0.4 0 0
      </DataArray>
    </Points>
    <Cells>
      <DataArray type="Int32" Name="connectivity" format="ascii">
0 1
1 2
2 3
3 4
4 5
5 6
6 7
7 8
8 9
9 10
10 11
11 12
12 13
13 14
14 15
15 16
16 17
17 18
18 19
19 20
20 21
21 22
22 23
23 24
24 25
25 26
26 27
27 28
28 29
29 30
30 31
31 32
32 33
33 34
34 35
0 35
0 34
1 34
1 33
2 33
2 32
3 32
3 31
4 31
4 30
5 30
5 7
30 7
30 8
29 8
29 9
28 9
28 10
27 10
27 11
26 11
26 12
25 12
25 13
25 14
24 14
24 15
23 15
23 16
22 16
22 17
21 17
21 18
20 18
      </DataArray>
      <DataArray type="Int32" Name="offsets" format="ascii">
2
4
6
8
10
12
14
16
18
20
22
24
26
28
30
32
34
36
38
40
42
44
46
48
50
52
54
56
58
60
62
64
66
68
70
72
74
76
78
80
82
84
86
88
90
92
94
96
98
100
102
104
106
108
110
112
114
116
118
120
122
124
126
128
130
132
134
136
138
      </DataArray>
      <DataArray type="UInt8" Name="types" format="ascii">
4
4
4
4
4
4
4
4
4
4
4
4
4
4
4
4
4
4
4
4
4
4
4
4
4
4
4
4
4
4
4
4
4
4
4
4
4
4
4
4
4
4
4
4
4
4
4
4
4
4
4
4
4
4
4
4
4
4
4
4
4
4
4
4
4
4
4
4
4
      </DataArray>
    </Cells>
    <PointData>
      <DataArray type="Float64" NumberOfComponents="3" Name="Displacement" format="ascii">
0 0 0
-0.00260556 -0.000496319 0
-0.00644818 -0.000543862 0
-0.00925457 -0.000137284 0
-0.00875457 0.000718922 0
-0.0024192 0.00199434 0
0.0156412 0.00183124 0
0.015602 -0.00376934 0
0.0162473 -0.0777668 0
0.0127256 -0.137468 0
0.00528258 -0.138069 0
-0.00272759 -0.0796322 0
-0.00660093 -0.00506777 0
-0.00643908 0.000730399 0
0.0107115 -0.000394999 0
0.0148714 -0.00121806 0
0.0136055 -0.00160098 0
0.00917433 -0.00152221 0
0.00385481 -0.00098451 0
0 0 0
0 0 0
0.0039288 2.32678e-05 0
0.00924855 -0.000414313 0
0.0136787 -0.0013017 0
0.0149477 -0.00263114 0
0.0108092 -0.00441353 0
0.0137807 -0.0789942 0
0.0119254 -0.137505 0
0.005065 -0.137394 0
-0.00120519 -0.0781065 0
-0.00265643 -0.00229462 0
-0.0086894 -0.00092237 0
-0.00918361 -1.71911e-05 0
-0.0063772 0.000439573 0
-0.00253454 0.000447091 0
0 0 0
      </DataArray> 
      <DataArray type="Float64" NumberOfComponents="3" Name="Velocity" format="ascii">
0 0 0
0 0 0
0 0 0
0 0 0
0 0 0
0 0 0
0 0 0
0 0 0
0 0 0
0 0 0
0 0 0
0 0 0
0 0 0
0 0 0
0 0 0
0 0 0
0 0 0
0 0 0
0 0 0
0 0 0
0 0 0
0 0 0
0 0 0
0 0 0
0 0 0
0 0 0
0 0 0
0 0 0
0 0 0
0 0 0
0 0 0
0 0 0
0 0 0
0 0 0
0 0 0
0 0 0
      </DataArray> 
      <DataArray type="Float64" NumberOfComponents="3" Name="Acceleration" format="ascii">
0 0 0
0 0 0
0 0 0
0 0 0
0 0 0
0 0 0
0 0 0
0 0 0
0 0 0
0 0 0
0 0 0
0 0 0
0 0 0
0 0 0
0 0 0
0 0 0
0 0 0
0 0 0
0 0 0
0 0 0
0 0 0
0 0 0
0 0 0
0 0 0
0 0 0
0 0 0
0 0 0
0 0 0
0 0 0
0 0 0
0 0 0
0 0 0
0 0 0
0 0 0
0 0 0
0 0 0
      </DataArray> 
    </PointData>
    <CellData>
    </CellData>
  </Piece>
  </UnstructuredGrid>
</VTKFile>
