<?xml version="1.0"?>
<VTKFile type="UnstructuredGrid">
  <UnstructuredGrid>
  <Piece NumberOfPoints="36"  NumberOfCells="69">
    <Points>
      <DataArray type="Float64" NumberOfComponents="3" format="ascii">
0 0 0
-0.00263594 0.999498 0
-0.00652249 1.99945 0
-0.009359 2.99986 0
-0.00884803 4.00073 0
-0.00243049 5.00202 0
0.0158522 6.00185 0
0.415812 5.99618 0
3.41645 5.92128 0
6.41288 5.86084 0
9.40535 5.86024 0
12.3972 5.91939 0
15.3933 5.99487 0
15.7935 6.00074 0
15.8108 4.9996 0
15.815 3.99877 0
15.8138 2.99838 0
15.8093 1.99846 0
15.8039 0.999004 0
15.8 0 0
15.4 0 0
15.404 1.00002 0
15.4094 1.99958 0
15.4138 2.99868 0
15.4151 3.99734 0
15.4109 4.99553 0
12.4139 4.92004 0
9.41207 4.86081 0
6.40513 4.86092 0
3.39879 4.92093 0
0.397329 4.99768 0
0.391218 3.99907 0
0.390713 2.99998 0
0.393549 2.00044 0
0.397436 1.00045 0
0.4 0 0
      </DataArray>
    </Points>
    <Cells>
      <DataArray type="Int32" Name="connectivity" format="ascii">
0 1
1 2
2 3
3 4
4 5
5 6
6 7
7 8
8 9
9 10
10 11
11 12
12 13
13 14
14 15
15 16
16 17
17 18
18 19
19 20
20 21
21 22
22 23
23 24
24 25
25 26
26 27
27 28
28 29
29 30
30 31
31 32
32 33
33 34
34 35
0 35
0 34
1 34
1 33
2 33
2 32
3 32
3 31
4 31
4 30
5 30
5 7
30 7
30 8
29 8
29 9
28 9
28 10
27 10
27 11
26 11
26 12
25 12
25 13
25 14
24 14
24 15
23 15
23 16
22 16
22 17
21 17
21 18
20 18
      </DataArray>
      <DataArray type="Int32" Name="offsets" format="ascii">
2
4
6
8
10
12
14
16
18
20
22
24
26
28
30
32
34
36
38
40
42
44
46
48
50
52
54
56
58
60
62
64
66
68
70
72
74
76
78
80
82
84
86
88
90
92
94
96
98
100
102
104
106
108
110
112
114
116
118
120
122
124
126
128
130
132
134
136
138
      </DataArray>
      <DataArray type="UInt8" Name="types" format="ascii">
4
4
4
4
4
4
4
4
4
4
4
4
4
4
4
4
4
4
4
4
4
4
4
4
4
4
4
4
4
4
4
4
4
4
4
4
4
4
4
4
4
4
4
4
4
4
4
4
4
4
4
4
4
4
4
4
4
4
4
4
4
4
4
4
4
4
4
4
4
      </DataArray>
    </Cells>
    <PointData>
      <DataArray type="Float64" NumberOfComponents="3" Name="Displacement" format="ascii">
0 0 0
-0.00263594 -0.00050206 0
-0.00652249 -0.000550008 0
-0.009359 -0.000138376 0
-0.00884803 0.000728219 0
-0.00243049 0.0020186 0
0.0158522 0.00185146 0
0.015812 -0.00381856 0
0.0164535 -0.0787243 0
0.0128811 -0.139155 0
0.00534665 -0.139762 0
-0.00276886 -0.0806112 0
-0.00670132 -0.00513243 0
-0.00653806 0.00073785 0
0.0108244 -0.000399169 0
0.0150401 -0.00123214 0
0.0137635 -0.00161988 0
0.00928213 -0.00154029 0
0.00390049 -0.000996197 0
0 0 0
0 0 0
0.00397539 2.31919e-05 0
0.00935726 -0.000420081 0
0.0138375 -0.00131851 0
0.0151173 -0.00266417 0
0.0109236 -0.00446823 0
0.0139422 -0.0799636 0
0.0120707 -0.139191 0
0.00512639 -0.13908 0
-0.00121324 -0.0790662 0
-0.00267094 -0.00232392 0
-0.00878218 -0.000934743 0
-0.00928721 -1.84334e-05 0
-0.00645067 0.000444128 0
-0.00256408 0.000452102 0
0 0 0
      </DataArray> 
      <DataArray type="Float64" NumberOfComponents="3" Name="Velocity" format="ascii">
0 0 0
0 0 0
0 0 0
0 0 0
0 0 0
0 0 0
0 0 0
0 0 0
0 0 0
0 0 0
0 0 0
0 0 0
0 0 0
0 0 0
0 0 0
0 0 0
0 0 0
0 0 0
0 0 0
0 0 0
0 0 0
0 0 0
0 0 0
0 0 0
0 0 0
0 0 0
0 0 0
0 0 0
0 0 0
0 0 0
0 0 0
0 0 0
0 0 0
0 0 0
0 0 0
0 0 0
      </DataArray> 
      <DataArray type="Float64" NumberOfComponents="3" Name="Acceleration" format="ascii">
0 0 0
0 0 0
0 0 0
0 0 0
0 0 0
0 0 0
0 0 0
0 0 0
0 0 0
0 0 0
0 0 0
0 0 0
0 0 0
0 0 0
0 0 0
0 0 0
0 0 0
0 0 0
0 0 0
0 0 0
0 0 0
0 0 0
0 0 0
0 0 0
0 0 0
0 0 0
0 0 0
0 0 0
0 0 0
0 0 0
0 0 0
0 0 0
0 0 0
0 0 0
0 0 0
0 0 0
      </DataArray> 
    </PointData>
    <CellData>
    </CellData>
  </Piece>
  </UnstructuredGrid>
</VTKFile>
