<?xml version="1.0"?>
<VTKFile type="UnstructuredGrid">
  <UnstructuredGrid>
  <Piece NumberOfPoints="36"  NumberOfCells="69">
    <Points>
      <DataArray type="Float64" NumberOfComponents="3" format="ascii">
0 0 0
-0.00250818 0.999522 0
-0.0062098 1.99948 0
-0.00891918 2.99987 0
-0.00845346 4.00069 0
-0.00238011 5.00192 0
0.0149696 6.00177 0
0.414933 5.99639 0
3.41559 5.92529 0
6.41223 5.86793 0
9.40508 5.86735 0
12.3974 5.9235 0
15.3937 5.99514 0
15.7939 6.00071 0
15.8103 4.99962 0
15.8143 3.99883 0
15.8131 2.99846 0
15.8088 1.99854 0
15.8037 0.999053 0
15.8 0 0
15.4 0 0
15.4038 1.00002 0
15.4089 1.9996 0
15.4132 2.99875 0
15.4144 3.99747 0
15.4104 4.99576 0
12.4133 4.92411 0
9.41146 4.86789 0
6.40487 4.86799 0
3.39882 4.92496 0
0.397393 4.9978 0
0.391609 3.99912 0
0.391149 2.99999 0
0.393859 2.00042 0
0.39756 1.00043 0
0.4 0 0
      </DataArray>
    </Points>
    <Cells>
      <DataArray type="Int32" Name="connectivity" format="ascii">
0 1
1 2
2 3
3 4
4 5
5 6
6 7
7 8
8 9
9 10
10 11
11 12
12 13
13 14
14 15
15 16
16 17
17 18
18 19
19 20
20 21
21 22
22 23
23 24
24 25
25 26
26 27
27 28
28 29
29 30
30 31
31 32
32 33
33 34
34 35
0 35
0 34
1 34
1 33
2 33
2 32
3 32
3 31
4 31
4 30
5 30
5 7
30 7
30 8
29 8
29 9
28 9
28 10
27 10
27 11
26 11
26 12
25 12
25 13
25 14
24 14
24 15
23 15
23 16
22 16
22 17
21 17
21 18
20 18
      </DataArray>
      <DataArray type="Int32" Name="offsets" format="ascii">
2
4
6
8
10
12
14
16
18
20
22
24
26
28
30
32
34
36
38
40
42
44
46
48
50
52
54
56
58
60
62
64
66
68
70
72
74
76
78
80
82
84
86
88
90
92
94
96
98
100
102
104
106
108
110
112
114
116
118
120
122
124
126
128
130
132
134
136
138
      </DataArray>
      <DataArray type="UInt8" Name="types" format="ascii">
4
4
4
4
4
4
4
4
4
4
4
4
4
4
4
4
4
4
4
4
4
4
4
4
4
4
4
4
4
4
4
4
4
4
4
4
4
4
4
4
4
4
4
4
4
4
4
4
4
4
4
4
4
4
4
4
4
4
4
4
4
4
4
4
4
4
4
4
4
      </DataArray>
    </Cells>
    <PointData>
      <DataArray type="Float64" NumberOfComponents="3" Name="Displacement" format="ascii">
0 0 0
-0.00250818 -0.000477904 0
-0.0062098 -0.000524122 0
-0.00891918 -0.000133693 0
-0.00845346 0.000689273 0
-0.00238011 0.00191672 0
0.0149696 0.00176621 0
0.0149334 -0.00361242 0
0.0155892 -0.0747058 0
0.0122282 -0.132074 0
0.00507758 -0.132653 0
-0.00259689 -0.0765024 0
-0.0062831 -0.00486141 0
-0.00612582 0.00070633 0
0.0103476 -0.000381553 0
0.0143299 -0.0011729 0
0.0130991 -0.00154043 0
0.00882886 -0.00146429 0
0.00370848 -0.000947076 0
0 0 0
0 0 0
0.00377958 2.34524e-05 0
0.00890018 -0.000395977 0
0.0131694 -0.00124808 0
0.0144031 -0.00252565 0
0.0104405 -0.00423871 0
0.0132632 -0.0758947 0
0.0114608 -0.132114 0
0.00486859 -0.132006 0
-0.00117834 -0.0750383 0
-0.00260708 -0.0022011 0
-0.0083905 -0.000882978 0
-0.00885088 -1.33829e-05 0
-0.00614149 0.000424875 0
-0.00243983 0.000430991 0
0 0 0
      </DataArray> 
      <DataArray type="Float64" NumberOfComponents="3" Name="Velocity" format="ascii">
0 0 0
0 0 0
0 0 0
0 0 0
0 0 0
0 0 0
0 0 0
0 0 0
0 0 0
0 0 0
0 0 0
0 0 0
0 0 0
0 0 0
0 0 0
0 0 0
0 0 0
0 0 0
0 0 0
0 0 0
0 0 0
0 0 0
0 0 0
0 0 0
0 0 0
0 0 0
0 0 0
0 0 0
0 0 0
0 0 0
0 0 0
0 0 0
0 0 0
0 0 0
0 0 0
0 0 0
      </DataArray> 
      <DataArray type="Float64" NumberOfComponents="3" Name="Acceleration" format="ascii">
0 0 0
0 0 0
0 0 0
0 0 0
0 0 0
0 0 0
0 0 0
0 0 0
0 0 0
0 0 0
0 0 0
0 0 0
0 0 0
0 0 0
0 0 0
0 0 0
0 0 0
0 0 0
0 0 0
0 0 0
0 0 0
0 0 0
0 0 0
0 0 0
0 0 0
0 0 0
0 0 0
0 0 0
0 0 0
0 0 0
0 0 0
0 0 0
0 0 0
0 0 0
0 0 0
0 0 0
      </DataArray> 
    </PointData>
    <CellData>
    </CellData>
  </Piece>
  </UnstructuredGrid>
</VTKFile>
