<?xml version="1.0"?>
<VTKFile type="UnstructuredGrid">
  <UnstructuredGrid>
  <Piece NumberOfPoints="36"  NumberOfCells="69">
    <Points>
      <DataArray type="Float64" NumberOfComponents="3" format="ascii">
0 0 0
-0.00298633 0.999432 0
-0.00737797 1.99938 0
-0.010557 2.99985 0
-0.00990986 4.00084 0
-0.002529 5.0023 0
0.0183397 6.00208 0
0.418287 5.9956 0
3.41886 5.91014 0
6.41469 5.84123 0
9.40609 5.84055 0
12.3967 5.908 0
15.3921 5.99411 0
15.7923 6.00082 0
15.8121 4.99955 0
15.817 3.99861 0
15.8156 2.99816 0
15.8105 1.99825 0
15.8044 0.998869 0
15.8 0 0
15.4 0 0
15.4045 1.00002 0
15.4106 1.99951 0
15.4157 2.99848 0
15.4171 3.99695 0
15.4122 4.99489 0
12.4158 4.90877 0
9.41376 4.84121 0
6.40584 4.84133 0
3.39871 4.90977 0
0.397192 4.99733 0
0.390164 3.99892 0
0.389524 2.99997 0
0.392704 2.0005 0
0.397095 1.00051 0
0.4 0 0
      </DataArray>
    </Points>
    <Cells>
      <DataArray type="Int32" Name="connectivity" format="ascii">
0 1
1 2
2 3
3 4
4 5
5 6
6 7
7 8
8 9
9 10
10 11
11 12
12 13
13 14
14 15
15 16
16 17
17 18
18 19
19 20
20 21
21 22
22 23
23 24
24 25
25 26
26 27
27 28
28 29
29 30
30 31
31 32
32 33
33 34
34 35
0 35
0 34
1 34
1 33
2 33
2 32
3 32
3 31
4 31
4 30
5 30
5 7
30 7
30 8
29 8
29 9
28 9
28 10
27 10
27 11
26 11
26 12
25 12
25 13
25 14
24 14
24 15
23 15
23 16
22 16
22 17
21 17
21 18
20 18
      </DataArray>
      <DataArray type="Int32" Name="offsets" format="ascii">
2
4
6
8
10
12
14
16
18
20
22
24
26
28
30
32
34
36
38
40
42
44
46
48
50
52
54
56
58
60
62
64
66
68
70
72
74
76
78
80
82
84
86
88
90
92
94
96
98
100
102
104
106
108
110
112
114
116
118
120
122
124
126
128
130
132
134
136
138
      </DataArray>
      <DataArray type="UInt8" Name="types" format="ascii">
4
4
4
4
4
4
4
4
4
4
4
4
4
4
4
4
4
4
4
4
4
4
4
4
4
4
4
4
4
4
4
4
4
4
4
4
4
4
4
4
4
4
4
4
4
4
4
4
4
4
4
4
4
4
4
4
4
4
4
4
4
4
4
4
4
4
4
4
4
      </DataArray>
    </Cells>
    <PointData>
      <DataArray type="Float64" NumberOfComponents="3" Name="Displacement" format="ascii">
0 0 0
-0.00298633 -0.000568188 0
-0.00737797 -0.000620504 0
-0.010557 -0.000149965 0
-0.00990986 0.000837214 0
-0.002529 0.00230032 0
0.0183397 0.00208255 0
0.0182872 -0.00439627 0
0.0188626 -0.089863 0
0.0146884 -0.158772 0
0.00609041 -0.159452 0
-0.00326254 -0.0919964 0
-0.00790292 -0.00588871 0
-0.00772448 0.000821773 0
0.012104 -0.000446418 0
0.0169765 -0.0013942 0
0.0155839 -0.00183819 0
0.0105271 -0.00174944 0
0.00442883 -0.00113138 0
0 0 0
0 0 0
0.00451423 2.16753e-05 0
0.0106128 -0.000488334 0
0.0156682 -0.00151542 0
0.017065 -0.00304945 0
0.0122211 -0.0051052 0
0.0158063 -0.0912348 0
0.013758 -0.15879 0
0.00583893 -0.158673 0
-0.00129494 -0.0902264 0
-0.00280751 -0.00266674 0
-0.00983629 -0.00108045 0
-0.0104756 -3.46669e-05 0
-0.0072965 0.000495627 0
-0.00290482 0.000509533 0
0 0 0
      </DataArray> 
      <DataArray type="Float64" NumberOfComponents="3" Name="Velocity" format="ascii">
0 0 0
0 0 0
0 0 0
0 0 0
0 0 0
0 0 0
0 0 0
0 0 0
0 0 0
0 0 0
0 0 0
0 0 0
0 0 0
0 0 0
0 0 0
0 0 0
0 0 0
0 0 0
0 0 0
0 0 0
0 0 0
0 0 0
0 0 0
0 0 0
0 0 0
0 0 0
0 0 0
0 0 0
0 0 0
0 0 0
0 0 0
0 0 0
0 0 0
0 0 0
0 0 0
0 0 0
      </DataArray> 
      <DataArray type="Float64" NumberOfComponents="3" Name="Acceleration" format="ascii">
0 0 0
0 0 0
0 0 0
0 0 0
0 0 0
0 0 0
0 0 0
0 0 0
0 0 0
0 0 0
0 0 0
0 0 0
0 0 0
0 0 0
0 0 0
0 0 0
0 0 0
0 0 0
0 0 0
0 0 0
0 0 0
0 0 0
0 0 0
0 0 0
0 0 0
0 0 0
0 0 0
0 0 0
0 0 0
0 0 0
0 0 0
0 0 0
0 0 0
0 0 0
0 0 0
0 0 0
      </DataArray> 
    </PointData>
    <CellData>
    </CellData>
  </Piece>
  </UnstructuredGrid>
</VTKFile>
